Warning: no access to tty (Bad file descriptor).
Thus no job control in this shell.

                                 *****************
                                 * O   R   C   A *
                                 *****************

           --- An Ab Initio, DFT and Semiempirical electronic structure package ---

                  #######################################################
                  #                        -***-                        #
                  #          Department of theory and spectroscopy      #
                  #               Directorship: Frank Neese             #
                  #        Max Planck Institute fuer Kohlenforschung    #
                  #                Kaiser Wilhelm Platz 1               #
                  #                 D-45470 Muelheim/Ruhr               #
                  #                      Germany                        #
                  #                                                     #
                  #                  All rights reserved                #
                  #                        -***-                        #
                  #######################################################


                         Program Version 4.2.1 -  RELEASE  -


 With contributions from (in alphabetic order):
   Daniel Aravena         : Magnetic Suceptibility
   Michael Atanasov       : Ab Initio Ligand Field Theory (pilot matlab implementation)
   Alexander A. Auer      : GIAO ZORA, VPT2
   Ute Becker             : Parallelization
   Giovanni Bistoni       : ED, misc. LED, open-shell LED, HFLD
   Martin Brehm           : Molecular dynamics
   Dmytro Bykov           : SCF Hessian
   Vijay G. Chilkuri      : MRCI spin determinant printing, contributions to CSF-ICE
   Dipayan Datta          : RHF DLPNO-CCSD density
   Achintya Kumar Dutta   : EOM-CC, STEOM-CC
   Dmitry Ganyushin       : Spin-Orbit,Spin-Spin,Magnetic field MRCI
   Miquel Garcia          : C-PCM Hessian, Gaussian charge scheme
   Yang Guo               : DLPNO-NEVPT2, CIM, IAO-localization
   Andreas Hansen         : Spin unrestricted coupled pair/coupled cluster methods
   Benjamin Helmich-Paris : CASSCF linear response (MC-RPA)
   Lee Huntington         : MR-EOM, pCC
   Robert Izsak           : Overlap fitted RIJCOSX, COSX-SCS-MP3, EOM
   Christian Kollmar      : KDIIS, OOCD, Brueckner-CCSD(T), CCSD density
   Simone Kossmann        : Meta GGA functionals, TD-DFT gradient, OOMP2, MP2 Hessian
   Martin Krupicka        : AUTO-CI
   Lucas Lang             : DCDCAS
   Dagmar Lenk            : GEPOL surface, SMD
   Dimitrios Liakos       : Extrapolation schemes; Compound Job, initial MDCI parallelization
   Dimitrios Manganas     : Further ROCIS development; embedding schemes
   Dimitrios Pantazis     : SARC Basis sets
   Taras Petrenko         : DFT Hessian,TD-DFT gradient, ASA, ECA, R-Raman, ABS, FL, XAS/XES, NRVS
   Peter Pinski           : DLPNO-MP2, DLPNO-MP2 Gradient
   Christoph Reimann      : Effective Core Potentials
   Marius Retegan         : Local ZFS, SOC
   Christoph Riplinger    : Optimizer, TS searches, QM/MM, DLPNO-CCSD(T), (RO)-DLPNO pert. Triples
   Tobias Risthaus        : Range-separated hybrids, TD-DFT gradient, RPA, STAB
   Michael Roemelt        : Original ROCIS implementation
   Masaaki Saitow         : Open-shell DLPNO-CCSD energy and density
   Barbara Sandhoefer     : DKH picture change effects
   Avijit Sen             : IP-ROCIS
   Kantharuban Sivalingam : CASSCF convergence, NEVPT2, FIC-MRCI
   Bernardo de Souza      : ESD, SOC TD-DFT
   Georgi Stoychev        : AutoAux, RI-MP2 NMR
   Willem Van den Heuvel  : Paramagnetic NMR
   Boris Wezisla          : Elementary symmetry handling
   Frank Wennmohs         : Technical directorship


 We gratefully acknowledge several colleagues who have allowed us to
 interface, adapt or use parts of their codes:
   Stefan Grimme, W. Hujo, H. Kruse,             : VdW corrections, initial TS optimization,
                  C. Bannwarth                     DFT functionals, gCP, sTDA/sTD-DF
   Ed Valeev, F. Pavosevic, A. Kumar             : LibInt (2-el integral package), F12 methods
   Garnet Chan, S. Sharma, J. Yang, R. Olivares  : DMRG
   Ulf Ekstrom                                   : XCFun DFT Library
   Mihaly Kallay                                 : mrcc  (arbitrary order and MRCC methods)
   Andreas Klamt, Michael Diedenhofen            : otool_cosmo (COSMO solvation model)
   Jiri Pittner, Ondrej Demel                    : Mk-CCSD
   Frank Weinhold                                : gennbo (NPA and NBO analysis)
   Christopher J. Cramer and Donald G. Truhlar   : smd solvation model
   Lars Goerigk                                  : TD-DFT with DH, B97 family of functionals
   V. Asgeirsson, H. Jonsson                     : NEB implementation
   FAccTs GmbH                                   : IRC, NEB, NEB-TS, Multilevel, MM, QM/MM, CI optimization
   S Lehtola, MJT Oliveira, MAL Marques          : LibXC Library


 Your calculation uses the libint2 library for the computation of 2-el integrals
 For citations please refer to: http://libint.valeyev.net

 Your ORCA version has been built with support for libXC version: 4.2.3
 For citations please refer to: https://tddft.org/programs/libxc/

 This ORCA versions uses:
   CBLAS   interface :  Fast vector & matrix operations
   LAPACKE interface :  Fast linear algebra routines
   SCALAPACK package :  Parallel linear algebra routines


Your calculation utilizes the atom-pairwise dispersion correction
with the zero-damping scheme (D30)
Cite in your paper:
S.Grimme, J.Antony, S.Ehrlich and H.Krieg, J.Chem.Phys., 132, (2010), 154104 
   

XCFun DFT library Copyright 2009-2010 Ulf Ekstrom and contributors.
See http://admol.org/xcfun for more information. This is free soft-
ware; see the source code for copying conditions. There is ABSOLUTELY
NO WARRANTY; not even for MERCHANTABILITY or FITNESS FOR A PARTICULAR
PURPOSE. For details see the documentation. Scientific users of this 
library should cite U. Ekstrom, L. Visscher, R. Bast, A. J. Thorvald-
sen and K. Ruud; J.Chem.Theor.Comp. 2010, DOI: 10.1021/ct100117s
XCFun Version 0.99 
----- Orbital basis set information -----
Your calculation utilizes the basis: def2-TZVP
   F. Weigend and R. Ahlrichs, Phys. Chem. Chem. Phys. 7, 3297 (2005).

----- AuxJ basis set information -----
Your calculation utilizes the auxiliary basis: def2/J
   F. Weigend, Phys. Chem. Chem. Phys. 8, 1057 (2006).

================================================================================
                                        WARNINGS
                       Please study these warnings very carefully!
================================================================================


WARNING: Geometry Optimization
  ===> : Switching off AutoStart
         For restart on a previous wavefunction, please use MOREAD

INFO   : the flag for use of LIBINT has been found!

================================================================================
                                       INPUT FILE
================================================================================
NAME = NTCDA.inp
|  1> # avogadro generated ORCA input file 
|  2> # Basic Mode
|  3> # 
|  4> ! wB97X-D3 OPT def2-TZVP def2/J CPCM
|  5> %cpcm
|  6>   epsilon 3
|  7> end
|  8> %pal
|  9>  nprocs 4
| 10> end
| 11>  
| 12> 
| 13> * xyz 0 1
| 14>    O        1.07761        0.08434       -0.05997
| 15>    C        2.29872        0.07603       -0.05991
| 16>    O        2.97164        1.25472       -0.05939
| 17>    C        4.32723        1.32177       -0.05928
| 18>    O        4.87212        2.41460       -0.05882
| 19>    C        5.13076        0.07271       -0.05971
| 20>    C        6.53432        0.10057       -0.05958
| 21>    C        7.26556       -1.09014       -0.06000
| 22>    C        6.60589       -2.32934       -0.06057
| 23>    C        5.19770       -2.37011       -0.06071
| 24>    C        4.52442       -3.60759       -0.06128
| 25>    C        3.12086       -3.63545       -0.06141
| 26>    C        2.38962       -2.44474       -0.06096
| 27>    C        3.04929       -1.20554       -0.06039
| 28>    C        4.45748       -1.16477       -0.06027
| 29>    C        5.32795       -4.85665       -0.06174
| 30>    O        4.78306       -5.94948       -0.06226
| 31>    O        6.68354       -4.78960       -0.06159
| 32>    C        7.35646       -3.61091       -0.06104
| 33>    O        8.57757       -3.61922       -0.06093
| 34>    H        7.06697        1.04333       -0.05915
| 35>    H        8.34729       -1.04149       -0.05988
| 36>    H        2.58821       -4.57821       -0.06185
| 37>    H        1.30789       -2.49339       -0.06107
| 38> *
| 39> 
| 40> 
| 41>                          ****END OF INPUT****
================================================================================

                       *****************************
                       * Geometry Optimization Run *
                       *****************************

Geometry optimization settings:
Update method            Update   .... BFGS
Choice of coordinates    CoordSys .... Z-matrix Internals
Initial Hessian          InHess   .... Almoef's Model

Convergence Tolerances:
Energy Change            TolE     ....  5.0000e-06 Eh
Max. Gradient            TolMAXG  ....  3.0000e-04 Eh/bohr
RMS Gradient             TolRMSG  ....  1.0000e-04 Eh/bohr
Max. Displacement        TolMAXD  ....  4.0000e-03 bohr
RMS Displacement         TolRMSD  ....  2.0000e-03 bohr
Strict Convergence                ....  False
------------------------------------------------------------------------------
                        ORCA OPTIMIZATION COORDINATE SETUP
------------------------------------------------------------------------------

The optimization will be done in new redundant internal coordinates
Making redundant internal coordinates   ...  (new redundants) done
Evaluating the initial hessian          ...  (Almloef) done
Evaluating the coordinates              ...  done
Calculating the B-matrix                .... done
Calculating the G-matrix                .... done
Diagonalizing the G-matrix              .... done
The first mode is                       ....   73
The number of degrees of freedom        ....   66

    -----------------------------------------------------------------
                    Redundant Internal Coordinates


    -----------------------------------------------------------------
         Definition                    Initial Value    Approx d2E/dq
    -----------------------------------------------------------------
      1. B(C   1,O   0)                  1.2211         1.040599   
      2. B(O   2,C   1)                  1.3573         0.631137   
      3. B(C   3,O   2)                  1.3572         0.631147   
      4. B(O   4,C   3)                  1.2211         1.040593   
      5. B(C   5,C   3)                  1.4852         0.440410   
      6. B(C   6,C   5)                  1.4038         0.593832   
      7. B(C   7,C   6)                  1.3973         0.608220   
      8. B(C   8,C   7)                  1.4038         0.593813   
      9. B(C   9,C   8)                  1.4088         0.583144   
     10. B(C  10,C   9)                  1.4088         0.583143   
     11. B(C  11,C  10)                  1.4038         0.593832   
     12. B(C  12,C  11)                  1.3973         0.608220   
     13. B(C  13,C  12)                  1.4038         0.593813   
     14. B(C  13,C   1)                  1.4852         0.440429   
     15. B(C  14,C   5)                  1.4088         0.583143   
     16. B(C  14,C  13)                  1.4088         0.583144   
     17. B(C  14,C   9)                  1.4145         0.571048   
     18. B(C  15,C  10)                  1.4852         0.440410   
     19. B(O  16,C  15)                  1.2211         1.040593   
     20. B(O  17,C  15)                  1.3572         0.631147   
     21. B(C  18,O  17)                  1.3573         0.631137   
     22. B(C  18,C   8)                  1.4852         0.440429   
     23. B(O  19,C  18)                  1.2211         1.040599   
     24. B(H  20,C   6)                  1.0828         0.369716   
     25. B(H  21,C   7)                  1.0828         0.369720   
     26. B(H  22,C  11)                  1.0828         0.369716   
     27. B(H  23,C  12)                  1.0828         0.369720   
     28. A(O   0,C   1,C  13)          120.7459         0.445123   
     29. A(O   0,C   1,O   2)          119.3324         0.472157   
     30. A(O   2,C   1,C  13)          119.9218         0.407016   
     31. A(C   1,O   2,C   3)          122.5539         0.431158   
     32. A(O   2,C   3,C   5)          119.9218         0.407014   
     33. A(O   2,C   3,O   4)          119.3327         0.472158   
     34. A(O   4,C   3,C   5)          120.7455         0.445119   
     35. A(C   3,C   5,C   6)          121.6163         0.405260   
     36. A(C   3,C   5,C  14)          118.6971         0.403963   
     37. A(C   6,C   5,C  14)          119.6866         0.426007   
     38. A(C   5,C   6,C   7)          120.4178         0.429234   
     39. A(C   5,C   6,H  20)          120.6032         0.351909   
     40. A(C   7,C   6,H  20)          118.9790         0.353338   
     41. A(C   8,C   7,H  21)          120.6031         0.351908   
     42. A(C   6,C   7,H  21)          118.9799         0.353338   
     43. A(C   6,C   7,C   8)          120.4171         0.429231   
     44. A(C   7,C   8,C  18)          121.6161         0.405261   
     45. A(C   7,C   8,C   9)          119.6863         0.426005   
     46. A(C   9,C   8,C  18)          118.6976         0.403966   
     47. A(C  10,C   9,C  14)          119.8958         0.423036   
     48. A(C   8,C   9,C  14)          119.8964         0.423036   
     49. A(C   8,C   9,C  10)          120.2078         0.424625   
     50. A(C  11,C  10,C  15)          121.6163         0.405260   
     51. A(C   9,C  10,C  15)          118.6971         0.403963   
     52. A(C   9,C  10,C  11)          119.6866         0.426007   
     53. A(C  10,C  11,C  12)          120.4178         0.429234   
     54. A(C  12,C  11,H  22)          118.9790         0.353338   
     55. A(C  10,C  11,H  22)          120.6032         0.351909   
     56. A(C  11,C  12,C  13)          120.4171         0.429231   
     57. A(C  13,C  12,H  23)          120.6031         0.351908   
     58. A(C  11,C  12,H  23)          118.9799         0.353338   
     59. A(C  12,C  13,C  14)          119.6863         0.426005   
     60. A(C   1,C  13,C  14)          118.6976         0.403966   
     61. A(C   1,C  13,C  12)          121.6161         0.405261   
     62. A(C   9,C  14,C  13)          119.8964         0.423036   
     63. A(C   5,C  14,C  13)          120.2078         0.424625   
     64. A(C   5,C  14,C   9)          119.8958         0.423036   
     65. A(O  16,C  15,O  17)          119.3327         0.472158   
     66. A(C  10,C  15,O  17)          119.9218         0.407014   
     67. A(C  10,C  15,O  16)          120.7455         0.445119   
     68. A(C  15,O  17,C  18)          122.5539         0.431158   
     69. A(O  17,C  18,O  19)          119.3324         0.472157   
     70. A(C   8,C  18,O  19)          120.7459         0.445123   
     71. A(C   8,C  18,O  17)          119.9218         0.407016   
     72. D(C   3,O   2,C   1,O   0)    179.9994         0.029302   
     73. D(C   3,O   2,C   1,C  13)     -0.0002         0.029302   
     74. D(O   4,C   3,O   2,C   1)    179.9991         0.029303   
     75. D(C   5,C   3,O   2,C   1)     -0.0013         0.029303   
     76. D(C   6,C   5,C   3,O   4)      0.0012         0.013234   
     77. D(C  14,C   5,C   3,O   4)   -179.9984         0.013234   
     78. D(C   6,C   5,C   3,O   2)   -179.9985         0.013234   
     79. D(C  14,C   5,C   3,O   2)      0.0020         0.013234   
     80. D(H  20,C   6,C   5,C  14)   -179.9999         0.024283   
     81. D(C   7,C   6,C   5,C   3)   -179.9997         0.024283   
     82. D(C   7,C   6,C   5,C  14)     -0.0001         0.024283   
     83. D(H  20,C   6,C   5,C   3)      0.0006         0.024283   
     84. D(H  21,C   7,C   6,C   5)   -179.9995         0.025541   
     85. D(C   8,C   7,C   6,C   5)      0.0006         0.025541   
     86. D(C   8,C   7,C   6,H  20)   -179.9996         0.025541   
     87. D(H  21,C   7,C   6,H  20)      0.0003         0.025541   
     88. D(C  18,C   8,C   7,H  21)     -0.0006         0.024282   
     89. D(C   9,C   8,C   7,H  21)    179.9997         0.024282   
     90. D(C   9,C   8,C   7,C   6)     -0.0004         0.024282   
     91. D(C  18,C   8,C   7,C   6)    179.9993         0.024282   
     92. D(C  14,C   9,C   8,C  18)    180.0000         0.023375   
     93. D(C  14,C   9,C   8,C   7)     -0.0003         0.023375   
     94. D(C  10,C   9,C   8,C  18)      0.0003         0.023375   
     95. D(C  10,C   9,C   8,C   7)   -180.0000         0.023375   
     96. D(C  15,C  10,C   9,C  14)    179.9997         0.023375   
     97. D(C  11,C  10,C   9,C   8)    179.9998         0.023375   
     98. D(C  11,C  10,C   9,C  14)      0.0001         0.023375   
     99. D(C  15,C  10,C   9,C   8)     -0.0006         0.023375   
    100. D(H  22,C  11,C  10,C   9)    179.9997         0.024283   
    101. D(C  12,C  11,C  10,C  15)    179.9996         0.024283   
    102. D(C  12,C  11,C  10,C   9)     -0.0009         0.024283   
    103. D(H  22,C  11,C  10,C  15)      0.0002         0.024283   
    104. D(H  23,C  12,C  11,H  22)     -0.0005         0.025541   
    105. D(H  23,C  12,C  11,C  10)   -179.9999         0.025541   
    106. D(C  13,C  12,C  11,H  22)   -179.9997         0.025541   
    107. D(C  13,C  12,C  11,C  10)      0.0008         0.025541   
    108. D(C  14,C  13,C  12,H  23)   -179.9994         0.024282   
    109. D(C   1,C  13,C  12,H  23)      0.0004         0.024282   
    110. D(C   1,C  13,C  12,C  11)    179.9997         0.024282   
    111. D(C  14,C  13,C   1,O   2)      0.0010         0.013235   
    112. D(C  14,C  13,C   1,O   0)   -179.9986         0.013235   
    113. D(C  14,C  13,C  12,C  11)     -0.0001         0.024282   
    114. D(C  12,C  13,C   1,O   2)   -179.9988         0.013235   
    115. D(C  12,C  13,C   1,O   0)      0.0016         0.013235   
    116. D(C   9,C  14,C  13,C  12)     -0.0006         0.023375   
    117. D(C   5,C  14,C  13,C  12)    179.9995         0.023375   
    118. D(C   5,C  14,C  13,C   1)     -0.0003         0.023375   
    119. D(C  13,C  14,C   9,C  10)      0.0006         0.022373   
    120. D(C  13,C  14,C   9,C   8)   -179.9991         0.022373   
    121. D(C   5,C  14,C   9,C  10)   -179.9995         0.022373   
    122. D(C   5,C  14,C   9,C   8)      0.0008         0.022373   
    123. D(C  13,C  14,C   5,C   6)    179.9993         0.023375   
    124. D(C  13,C  14,C   5,C   3)     -0.0012         0.023375   
    125. D(C   9,C  14,C  13,C   1)    179.9996         0.023375   
    126. D(C   9,C  14,C   5,C   6)     -0.0006         0.023375   
    127. D(C   9,C  14,C   5,C   3)    179.9990         0.023375   
    128. D(O  17,C  15,C  10,C  11)   -179.9996         0.013234   
    129. D(O  17,C  15,C  10,C   9)      0.0008         0.013234   
    130. D(O  16,C  15,C  10,C  11)      0.0007         0.013234   
    131. D(O  16,C  15,C  10,C   9)   -179.9989         0.013234   
    132. D(C  18,O  17,C  15,O  16)    179.9991         0.029303   
    133. D(C  18,O  17,C  15,C  10)     -0.0006         0.029303   
    134. D(O  17,C  18,C   8,C   7)   -179.9998         0.013235   
    135. D(O  19,C  18,O  17,C  15)    179.9998         0.029302   
    136. D(C   8,C  18,O  17,C  15)      0.0002         0.029302   
    137. D(O  19,C  18,C   8,C   9)   -179.9996         0.013235   
    138. D(O  19,C  18,C   8,C   7)      0.0006         0.013235   
    139. D(O  17,C  18,C   8,C   9)     -0.0001         0.013235   
    -----------------------------------------------------------------

Number of atoms                         .... 24
Number of degrees of freedom            .... 139

         *************************************************************
         *                GEOMETRY OPTIMIZATION CYCLE   1            *
         *************************************************************
---------------------------------
CARTESIAN COORDINATES (ANGSTROEM)
---------------------------------
  O      1.077610    0.084340   -0.059970
  C      2.298720    0.076030   -0.059910
  O      2.971640    1.254720   -0.059390
  C      4.327230    1.321770   -0.059280
  O      4.872120    2.414600   -0.058820
  C      5.130760    0.072710   -0.059710
  C      6.534320    0.100570   -0.059580
  C      7.265560   -1.090140   -0.060000
  C      6.605890   -2.329340   -0.060570
  C      5.197700   -2.370110   -0.060710
  C      4.524420   -3.607590   -0.061280
  C      3.120860   -3.635450   -0.061410
  C      2.389620   -2.444740   -0.060960
  C      3.049290   -1.205540   -0.060390
  C      4.457480   -1.164770   -0.060270
  C      5.327950   -4.856650   -0.061740
  O      4.783060   -5.949480   -0.062260
  O      6.683540   -4.789600   -0.061590
  C      7.356460   -3.610910   -0.061040
  O      8.577570   -3.619220   -0.060930
  H      7.066970    1.043330   -0.059150
  H      8.347290   -1.041490   -0.059880
  H      2.588210   -4.578210   -0.061850
  H      1.307890   -2.493390   -0.061070

----------------------------
CARTESIAN COORDINATES (A.U.)
----------------------------
  NO LB      ZA    FRAG     MASS         X           Y           Z
   0 O     8.0000    0    15.999    2.036388    0.159380   -0.113327
   1 C     6.0000    0    12.011    4.343951    0.143676   -0.113213
   2 O     8.0000    0    15.999    5.615586    2.371077   -0.112231
   3 C     6.0000    0    12.011    8.177280    2.497783   -0.112023
   4 O     8.0000    0    15.999    9.206972    4.562933   -0.111154
   5 C     6.0000    0    12.011    9.695731    0.137402   -0.112836
   6 C     6.0000    0    12.011   12.348075    0.190050   -0.112590
   7 C     6.0000    0    12.011   13.729919   -2.060066   -0.113384
   8 C     6.0000    0    12.011   12.483323   -4.401815   -0.114461
   9 C     6.0000    0    12.011    9.822230   -4.478859   -0.114725
  10 C     6.0000    0    12.011    8.549915   -6.817357   -0.115802
  11 C     6.0000    0    12.011    5.897571   -6.870005   -0.116048
  12 C     6.0000    0    12.011    4.515727   -4.619889   -0.115198
  13 C     6.0000    0    12.011    5.762323   -2.278140   -0.114121
  14 C     6.0000    0    12.011    8.423416   -2.201096   -0.113894
  15 C     6.0000    0    12.011   10.068366   -9.177738   -0.116672
  16 O     8.0000    0    15.999    9.038673  -11.242888   -0.117654
  17 O     8.0000    0    15.999   12.630060   -9.051032   -0.116388
  18 C     6.0000    0    12.011   13.901695   -6.823631   -0.115349
  19 O     8.0000    0    15.999   16.209258   -6.839335   -0.115141
  20 H     1.0000    0     1.008   13.354638    1.971608   -0.111777
  21 H     1.0000    0     1.008   15.774092   -1.968131   -0.113157
  22 H     1.0000    0     1.008    4.891008   -8.651563   -0.116880
  23 H     1.0000    0     1.008    2.471554   -4.711824   -0.115406

--------------------------------
INTERNAL COORDINATES (ANGSTROEM)
--------------------------------
 O      0   0   0     0.000000000000     0.00000000     0.00000000
 C      1   0   0     1.221138277101     0.00000000     0.00000000
 O      2   1   0     1.357251528973   119.33235228     0.00000000
 C      3   2   1     1.357247200292   122.55390879   179.99939881
 O      4   3   2     1.221139931621   119.33269997   179.99906903
 C      4   3   2     1.485197471517   119.92184042     0.00000000
 C      6   4   3     1.403836482679   121.61634335   180.00153737
 C      7   6   4     1.397319726512   120.41781067   180.00033968
 C      8   7   6     1.403845245673   120.41709268     0.00000000
 C      9   8   7     1.408780071054   119.68631958     0.00000000
 C     10   9   8     1.408780690420   120.20780484   180.00002256
 C     11  10   9     1.403836482679   119.68658190   179.99979973
 C     12  11  10     1.397319735851   120.41781031     0.00000000
 C     13  12  11     1.403845245673   120.41709304     0.00000000
 C     14  13  12     1.408780069209   119.68631925     0.00000000
 C     11  10   9     1.485197480506   118.69707509     0.00000000
 O     16  11  10     1.221139955697   120.74546025   180.00111871
 O     16  11  10     1.357247204123   119.92183942     0.00000000
 C     18  16  11     1.357251540799   122.55390931     0.00000000
 O     19  18  16     1.221138280581   119.33235307   179.99981667
 H      7   6   4     1.082826221053   120.60315957     0.00000000
 H      8   7   6     1.082823452738   118.97985540   180.00053289
 H     12  11  10     1.082826225070   120.60315950   179.99974869
 H     13  12  11     1.082823451676   118.97985525   180.00011290

---------------------------
INTERNAL COORDINATES (A.U.)
---------------------------
 O      0   0   0     0.000000000000     0.00000000     0.00000000
 C      1   0   0     2.307616915368     0.00000000     0.00000000
 O      2   1   0     2.564833684605   119.33235228     0.00000000
 C      3   2   1     2.564825504583   122.55390879   179.99939881
 O      4   3   2     2.307620041960   119.33269997   179.99906903
 C      4   3   2     2.806616475959   119.92184042     0.00000000
 C      6   4   3     2.652866489070   121.61634335   180.00153737
 C      7   6   4     2.640551604634   120.41781067   180.00033968
 C      8   7   6     2.652883048730   120.41709268     0.00000000
 C      9   8   7     2.662208517219   119.68631958     0.00000000
 C     10   9   8     2.662209687650   120.20780484   180.00002256
 C     11  10   9     2.652866489070   119.68658190   179.99979973
 C     12  11  10     2.640551622282   120.41781031     0.00000000
 C     13  12  11     2.652883048730   120.41709304     0.00000000
 C     14  13  12     2.662208513731   119.68631925     0.00000000
 C     11  10   9     2.806616492945   118.69707509     0.00000000
 O     16  11  10     2.307620087456   120.74546025   180.00111871
 O     16  11  10     2.564825511823   119.92183942     0.00000000
 C     18  16  11     2.564833706952   122.55390931     0.00000000
 O     19  18  16     2.307616921945   119.33235307   179.99981667
 H      7   6   4     2.046245008419   120.60315957     0.00000000
 H      8   7   6     2.046239777062   118.97985540   180.00053289
 H     12  11  10     2.046245016011   120.60315950   179.99974869
 H     13  12  11     2.046239775055   118.97985525   180.00011290

---------------------
BASIS SET INFORMATION
---------------------
There are 3 groups of distinct atoms

 Group   1 Type O   : 11s6p2d1f contracted to 5s3p2d1f pattern {62111/411/11/1}
 Group   2 Type C   : 11s6p2d1f contracted to 5s3p2d1f pattern {62111/411/11/1}
 Group   3 Type H   : 5s1p contracted to 3s1p pattern {311/1}

Atom   0O    basis set group =>   1
Atom   1C    basis set group =>   2
Atom   2O    basis set group =>   1
Atom   3C    basis set group =>   2
Atom   4O    basis set group =>   1
Atom   5C    basis set group =>   2
Atom   6C    basis set group =>   2
Atom   7C    basis set group =>   2
Atom   8C    basis set group =>   2
Atom   9C    basis set group =>   2
Atom  10C    basis set group =>   2
Atom  11C    basis set group =>   2
Atom  12C    basis set group =>   2
Atom  13C    basis set group =>   2
Atom  14C    basis set group =>   2
Atom  15C    basis set group =>   2
Atom  16O    basis set group =>   1
Atom  17O    basis set group =>   1
Atom  18C    basis set group =>   2
Atom  19O    basis set group =>   1
Atom  20H    basis set group =>   3
Atom  21H    basis set group =>   3
Atom  22H    basis set group =>   3
Atom  23H    basis set group =>   3
---------------------------------
AUXILIARY/J BASIS SET INFORMATION
---------------------------------
There are 3 groups of distinct atoms

 Group   1 Type O   : 12s5p4d2f1g contracted to 6s4p3d1f1g pattern {711111/2111/211/2/1}
 Group   2 Type C   : 12s5p4d2f1g contracted to 6s4p3d1f1g pattern {711111/2111/211/2/1}
 Group   3 Type H   : 5s2p1d contracted to 3s1p1d pattern {311/2/1}

Atom   0O    basis set group =>   1
Atom   1C    basis set group =>   2
Atom   2O    basis set group =>   1
Atom   3C    basis set group =>   2
Atom   4O    basis set group =>   1
Atom   5C    basis set group =>   2
Atom   6C    basis set group =>   2
Atom   7C    basis set group =>   2
Atom   8C    basis set group =>   2
Atom   9C    basis set group =>   2
Atom  10C    basis set group =>   2
Atom  11C    basis set group =>   2
Atom  12C    basis set group =>   2
Atom  13C    basis set group =>   2
Atom  14C    basis set group =>   2
Atom  15C    basis set group =>   2
Atom  16O    basis set group =>   1
Atom  17O    basis set group =>   1
Atom  18C    basis set group =>   2
Atom  19O    basis set group =>   1
Atom  20H    basis set group =>   3
Atom  21H    basis set group =>   3
Atom  22H    basis set group =>   3
Atom  23H    basis set group =>   3
--------------------------------------------------------------------------
[[21046,1],0]: A high-performance Open MPI point-to-point messaging module
was unable to find any relevant network interfaces:

Module: OpenFabrics (openib)
  Host: compute-0-2

Another transport will be used instead, although this may result in
lower performance.

NOTE: You can disable this warning by setting the MCA parameter
btl_base_warn_component_unused to 0.
--------------------------------------------------------------------------


           ************************************************************
           *        Program running with 4 parallel MPI-processes     *
           *              working on a common directory               *
           ************************************************************
------------------------------------------------------------------------------
                           ORCA GTO INTEGRAL CALCULATION
------------------------------------------------------------------------------

                         BASIS SET STATISTICS AND STARTUP INFO

 # of primitive gaussian shells          ...  424
 # of primitive gaussian functions       ...  952
 # of contracted shells                  ...  236
 # of contracted basis functions         ...  644
 Highest angular momentum                ...    3
 Maximum contraction depth               ...    6
 Integral package used                   ... LIBINT
 Integral threshhold            Thresh   ...  2.500e-11
 Primitive cut-off              TCut     ...  2.500e-12


------------------------------ INTEGRAL EVALUATION ----------------------------


 * One electron integrals 
 Pre-screening matrix                    ... done
 Shell pair data                         ... done (   0.009 sec)

[compute-0-2.local:20591] 3 more processes have sent help message help-mpi-btl-base.txt / btl:no-nics
[compute-0-2.local:20591] Set MCA parameter "orte_base_help_aggregate" to 0 to see all help / error messages
--------------------------------------------------------------------------
[[21210,1],1]: A high-performance Open MPI point-to-point messaging module
was unable to find any relevant network interfaces:

Module: OpenFabrics (openib)
  Host: compute-0-2

Another transport will be used instead, although this may result in
lower performance.

NOTE: You can disable this warning by setting the MCA parameter
btl_base_warn_component_unused to 0.
--------------------------------------------------------------------------


           ************************************************************
           *        Program running with 4 parallel MPI-processes     *
           *              working on a common directory               *
           ************************************************************
-------------------------------------------------------------------------------
                                 ORCA SCF
-------------------------------------------------------------------------------

------------
SCF SETTINGS
------------
Hamiltonian:
 Density Functional     Method          .... DFT(GTOs)
 Exchange Functional    Exchange        .... WB97X-D3
 Correlation Functional Correlation     .... WB97X-D3
 Gradients option       PostSCFGGA      .... off
 Hybrid DFT is turned on
   Fraction HF Exchange ScalHFX         ....  0.195728
   Scaling of DF-GGA-X  ScalDFX         ....  0.000000
   Scaling of DF-GGA-C  ScalDFC         ....  1.000000
   Scaling of DF-LDA-C  ScalLDAC        ....  1.000000
   Perturbative correction              ....  0.000000
   Density functional embedding theory  .... OFF
 Long-range corrected/Screened/Range-Separated Hybrid DFT is turned on
   Amount of maximum screened exact exchange              ....  0.804272
   Range separation parameter mu (erf(mu*r12)/r12)        ....  0.250000


General Settings:
 Integral files         IntName         .... NTCDA
 Hartree-Fock type      HFTyp           .... RHF
 Total Charge           Charge          ....    0
 Multiplicity           Mult            ....    1
 Number of Electrons    NEL             ....  136
 Basis Dimension        Dim             ....  644
 Nuclear Repulsion      ENuc            ....   1452.6005579952 Eh

Convergence Acceleration:
 DIIS                   CNVDIIS         .... on
   Start iteration      DIISMaxIt       ....    12
   Startup error        DIISStart       ....  0.200000
   # of expansion vecs  DIISMaxEq       ....     5
   Bias factor          DIISBfac        ....   1.050
   Max. coefficient     DIISMaxC        ....  10.000
 Newton-Raphson         CNVNR           .... off
 SOSCF                  CNVSOSCF        .... on
   Start iteration      SOSCFMaxIt      ....   150
   Startup grad/error   SOSCFStart      ....  0.003300
 Level Shifting         CNVShift        .... on
   Level shift para.    LevelShift      ....    0.2500
   Turn off err/grad.   ShiftErr        ....    0.0010
 Zerner damping         CNVZerner       .... off
 Static damping         CNVDamp         .... on
   Fraction old density DampFac         ....    0.7000
   Max. Damping (<1)    DampMax         ....    0.9800
   Min. Damping (>=0)   DampMin         ....    0.0000
   Turn off err/grad.   DampErr         ....    0.1000
 Fernandez-Rico         CNVRico         .... off

SCF Procedure:
 Maximum # iterations   MaxIter         ....   125
 SCF integral mode      SCFMode         .... Direct
   Integral package                     .... LIBINT
 Reset frequency        DirectResetFreq ....    20
 Integral Threshold     Thresh          ....  2.500e-11 Eh
 Primitive CutOff       TCut            ....  2.500e-12 Eh

Convergence Tolerance:
 Convergence Check Mode ConvCheckMode   .... Total+1el-Energy
 Convergence forced     ConvForced      .... 0
 Energy Change          TolE            ....  1.000e-08 Eh
 1-El. energy change                    ....  1.000e-05 Eh
 Orbital Gradient       TolG            ....  1.000e-05
 Orbital Rotation angle TolX            ....  1.000e-05
 DIIS Error             TolErr          ....  5.000e-07


Diagonalization of the overlap matrix:
Smallest eigenvalue                        ... 3.460e-06
Time for diagonalization                   ...    0.220 sec
Threshold for overlap eigenvalues          ... 1.000e-08
Number of eigenvalues below threshold      ... 0
Time for construction of square roots      ...    0.071 sec
Total time needed                          ...    0.294 sec

-------------------
DFT GRID GENERATION
-------------------

General Integration Accuracy     IntAcc      ...  4.340
Radial Grid Type                 RadialGrid  ... Gauss-Chebyshev
Angular Grid (max. acc.)         AngularGrid ... Lebedev-110
Angular grid pruning method      GridPruning ... 3 (G Style)
Weight generation scheme         WeightScheme... Becke
Basis function cutoff            BFCut       ...    1.0000e-11
Integration weight cutoff        WCut        ...    1.0000e-14
Grids for H and He will be reduced by one unit

# of grid points (after initial pruning)     ...  36656 (   0.0 sec)
# of grid points (after weights+screening)   ...  33212 (   0.1 sec)
nearest neighbour list constructed           ...    0.0 sec
Grid point re-assignment to atoms done       ...    0.0 sec
Grid point division into batches done        ...    0.0 sec
Reduced shell lists constructed in    0.2 sec

Total number of grid points                  ...    33212
Total number of batches                      ...      530
Average number of points per batch           ...       62
Average number of grid points per atom       ...     1384
Average number of shells per batch           ...   112.45 (47.65%)
Average number of basis functions per batch  ...   306.46 (47.59%)
Average number of large shells per batch     ...    79.02 (70.27%)
Average number of large basis fcns per batch ...   214.63 (70.04%)
Maximum spatial batch extension              ...  12.07, 17.99, 23.51 au
Average spatial batch extension              ...   0.81,  0.90,  1.21 au

Time for grid setup =    0.411 sec

------------------------------
INITIAL GUESS: MODEL POTENTIAL
------------------------------
Loading Hartree-Fock densities                     ... done
Calculating cut-offs                               ... done
Setting up the integral package                    ... done
Initializing the effective Hamiltonian             ... done
Starting the Coulomb interaction                   ... done (   0.5 sec)
Reading the grid                                   ... done
Mapping shells                                     ... done
Starting the XC term evaluation                    ... done (   0.7 sec)
  promolecular density results
     # of electrons  =    136.000782019
     EX              =   -121.745173465
     EC              =     -4.658635741
     EX+EC           =   -126.403809207
Transforming the Hamiltonian                       ... done (   0.1 sec)
Diagonalizing the Hamiltonian                      ... done (   0.2 sec)
Back transforming the eigenvectors                 ... done (   0.0 sec)
Now organizing SCF variables                       ... done
                      ------------------
                      INITIAL GUESS DONE (   2.0 sec)
                      ------------------

--------------------
CPCM SOLVATION MODEL
--------------------
CPCM parameters:
  Epsilon                                         ...       3.0000
  Refrac                                          ...       1.3300
  Rsolv                                           ...       1.3000
  Surface type                                    ...    GEPOL SES
  Epsilon function type                           ...         CPCM
Radii:
 Radius for O  used is    3.2503 Bohr (=   1.7200 Ang.)
 Radius for C  used is    3.7795 Bohr (=   2.0000 Ang.)
 Radius for H  used is    2.4566 Bohr (=   1.3000 Ang.)
Calculating surface                               ...        done! (  0.1s)
GEPOL surface points                              ...          714
GEPOL Volume                                      ...    1744.3553
GEPOL Surface-area                                ...     869.7661
Calculating surface distance matrix               ...        done! (  0.0s)
Performing Cholesky decomposition & store         ...        done! (  0.0s)
Overall time for CPCM initialization              ...                 0.1s
--------------
SCF ITERATIONS
--------------
ITER       Energy         Delta-E        Max-DP      RMS-DP      [F,P]     Damp
               ***  Starting incremental Fock matrix formation  ***
[compute-0-2.local:20611] 3 more processes have sent help message help-mpi-btl-base.txt / btl:no-nics
[compute-0-2.local:20611] Set MCA parameter "orte_base_help_aggregate" to 0 to see all help / error messages
  0   -986.9025314231   0.000000000000 0.05793394  0.00093091  0.2715782 0.7000
  1   -987.1248155697  -0.222284146538 0.05261032  0.00076558  0.1239770 0.7000
                               ***Turning on DIIS***
  2   -987.2130538217  -0.088238251990 0.11591073  0.00151910  0.0423608 0.0000
  3   -987.3716303617  -0.158576540037 0.03379652  0.00048967  0.0611816 0.0000
  4   -987.3943160365  -0.022685674849 0.00666322  0.00014116  0.0116105 0.0000
                      *** Initiating the SOSCF procedure ***
                           *** Shutting down DIIS ***
                      *** Re-Reading the Fockian *** 
                      *** Removing any level shift *** 
ITER      Energy       Delta-E        Grad      Rot      Max-DP    RMS-DP
  5   -987.39545653  -0.0011404919  0.001603  0.001603  0.002989  0.000064
               *** Restarting incremental Fock matrix formation ***
  6   -987.39557970  -0.0001231765  0.001380  0.003739  0.002413  0.000036
  7   -987.39562168  -0.0000419745  0.000515  0.002855  0.002311  0.000039
  8   -987.39564209  -0.0000204077  0.000191  0.000350  0.000507  0.000009
  9   -987.39564320  -0.0000011174  0.000148  0.000200  0.000170  0.000003
 10   -987.39564376  -0.0000005571  0.000036  0.000126  0.000068  0.000001
 11   -987.39564383  -0.0000000690  0.000011  0.000031  0.000038  0.000000
 12   -987.39564384  -0.0000000073  0.000006  0.000016  0.000031  0.000000
 13   -987.39564384  -0.0000000062  0.000003  0.000006  0.000029  0.000000
                 **** Energy Check signals convergence ****
              ***Rediagonalizing the Fockian in SOSCF/NRSCF***

               *****************************************************
               *                     SUCCESS                       *
               *           SCF CONVERGED AFTER  14 CYCLES          *
               *****************************************************

Setting up the final grid:

General Integration Accuracy     IntAcc      ...  4.670
Radial Grid Type                 RadialGrid  ... Gauss-Chebyshev
Angular Grid (max. acc.)         AngularGrid ... Lebedev-302
Angular grid pruning method      GridPruning ... 3 (G Style)
Weight generation scheme         WeightScheme... Becke
Basis function cutoff            BFCut       ...    1.0000e-11
Integration weight cutoff        WCut        ...    1.0000e-14
Grids for H and He will be reduced by one unit

# of grid points (after initial pruning)     ... 137816 (   0.0 sec)
# of grid points (after weights+screening)   ... 122716 (   0.3 sec)
nearest neighbour list constructed           ...    0.0 sec
Grid point re-assignment to atoms done       ...    0.0 sec
Grid point division into batches done        ...    0.6 sec
Reduced shell lists constructed in    1.3 sec

Total number of grid points                  ...   122716
Total number of batches                      ...     1934
Average number of points per batch           ...       63
Average number of grid points per atom       ...     5113
Average number of shells per batch           ...   101.11 (42.84%)
Average number of basis functions per batch  ...   274.02 (42.55%)
Average number of large shells per batch     ...    69.96 (69.19%)
Average number of large basis fcns per batch ...   188.33 (68.73%)
Maximum spatial batch extension              ...  22.50, 19.77, 23.20 au
Average spatial batch extension              ...   0.60,  0.63,  0.73 au

Final grid set up in    1.7 sec
Final integration                            ... done (   2.8 sec)
Change in XC energy                          ...     0.003593795
Integrated number of electrons               ...   135.999839724
Previous integrated no of electrons          ...   136.005218442

----------------
TOTAL SCF ENERGY
----------------

Total Energy       :         -987.39205005 Eh          -26868.30364 eV

Components:
Nuclear Repulsion  :         1452.60055800 Eh           39527.27071 eV
Electronic Energy  :        -2439.99260804 Eh          -66395.57435 eV
One Electron Energy:        -4228.57938858 Eh         -115065.49498 eV
Two Electron Energy:         1788.58678054 Eh           48669.92063 eV
CPCM Dielectric    :           -0.01935308 Eh              -0.52662 eV

Virial components:
Potential Energy   :        -1970.29964771 Eh          -53614.57913 eV
Kinetic Energy     :          982.90759767 Eh           26746.27549 eV
Virial Ratio       :            2.00456244


DFT components:
N(Alpha)           :       67.999919862191 electrons
N(Beta)            :       67.999919862191 electrons
N(Total)           :      135.999839724383 electrons
E(XC)              :      -90.034012302538 Eh       
DFET-embed. en.    :        0.000000000000 Eh       
CPCM Solvation Model Properties:
Surface-charge          :           -0.02680091
Charge-correction       :            0.00010084 Eh               0.00274 eV
Free-energy (cav+disp)  :            0.00473047 Eh               0.12872 eV
Corrected G(solv)       :         -987.38721874 Eh          -26868.17217 eV

---------------
SCF CONVERGENCE
---------------

  Last Energy change         ...    1.1721e-09  Tolerance :   1.0000e-08
  Last MAX-Density change    ...    2.9362e-05  Tolerance :   1.0000e-07
  Last RMS-Density change    ...    4.2694e-07  Tolerance :   5.0000e-09
  Last Orbital Gradient      ...    1.0210e-06  Tolerance :   1.0000e-05
  Last Orbital Rotation      ...    3.6514e-06  Tolerance :   1.0000e-05

             **** THE GBW FILE WAS UPDATED (NTCDA.gbw) ****
             **** DENSITY FILE WAS UPDATED (NTCDA.scfp) ****
             **** ENERGY FILE WAS UPDATED (NTCDA.en.tmp) ****
             **** THE GBW FILE WAS UPDATED (NTCDA.gbw) ****
             **** DENSITY FILE WAS UPDATED (NTCDA.scfp) ****
----------------
ORBITAL ENERGIES
----------------

  NO   OCC          E(Eh)            E(eV) 
   0   2.0000     -19.344949      -526.4028 
   1   2.0000     -19.344944      -526.4027 
   2   2.0000     -19.258864      -524.0603 
   3   2.0000     -19.258863      -524.0603 
   4   2.0000     -19.258847      -524.0599 
   5   2.0000     -19.258847      -524.0599 
   6   2.0000     -10.460621      -284.6480 
   7   2.0000     -10.460620      -284.6479 
   8   2.0000     -10.460587      -284.6470 
   9   2.0000     -10.460585      -284.6470 
  10   2.0000     -10.349225      -281.6167 
  11   2.0000     -10.349217      -281.6165 
  12   2.0000     -10.349074      -281.6126 
  13   2.0000     -10.349065      -281.6124 
  14   2.0000     -10.347200      -281.5616 
  15   2.0000     -10.346743      -281.5492 
  16   2.0000     -10.335975      -281.2562 
  17   2.0000     -10.335965      -281.2559 
  18   2.0000     -10.335398      -281.2405 
  19   2.0000     -10.335397      -281.2405 
  20   2.0000      -1.295863       -35.2622 
  21   2.0000      -1.295779       -35.2599 
  22   2.0000      -1.202971       -32.7345 
  23   2.0000      -1.202870       -32.7317 
  24   2.0000      -1.165208       -31.7069 
  25   2.0000      -1.165147       -31.7053 
  26   2.0000      -1.061368       -28.8813 
  27   2.0000      -0.996743       -27.1228 
  28   2.0000      -0.975880       -26.5550 
  29   2.0000      -0.914724       -24.8909 
  30   2.0000      -0.911452       -24.8019 
  31   2.0000      -0.858834       -23.3701 
  32   2.0000      -0.834945       -22.7200 
  33   2.0000      -0.834520       -22.7084 
  34   2.0000      -0.795219       -21.6390 
  35   2.0000      -0.777390       -21.1538 
  36   2.0000      -0.723812       -19.6959 
  37   2.0000      -0.719362       -19.5748 
  38   2.0000      -0.687854       -18.7175 
  39   2.0000      -0.662672       -18.0322 
  40   2.0000      -0.637830       -17.3562 
  41   2.0000      -0.636918       -17.3314 
  42   2.0000      -0.633139       -17.2286 
  43   2.0000      -0.620412       -16.8823 
  44   2.0000      -0.609194       -16.5770 
  45   2.0000      -0.591203       -16.0874 
  46   2.0000      -0.585116       -15.9218 
  47   2.0000      -0.583151       -15.8683 
  48   2.0000      -0.569901       -15.5078 
  49   2.0000      -0.569337       -15.4925 
  50   2.0000      -0.548249       -14.9186 
  51   2.0000      -0.544562       -14.8183 
  52   2.0000      -0.542703       -14.7677 
  53   2.0000      -0.538796       -14.6614 
  54   2.0000      -0.535315       -14.5666 
  55   2.0000      -0.520970       -14.1763 
  56   2.0000      -0.490654       -13.3514 
  57   2.0000      -0.477060       -12.9815 
  58   2.0000      -0.465573       -12.6689 
  59   2.0000      -0.460132       -12.5208 
  60   2.0000      -0.448870       -12.2144 
  61   2.0000      -0.435007       -11.8371 
  62   2.0000      -0.425498       -11.5784 
  63   2.0000      -0.421098       -11.4587 
  64   2.0000      -0.412765       -11.2319 
  65   2.0000      -0.406242       -11.0544 
  66   2.0000      -0.379875       -10.3369 
  67   2.0000      -0.347760        -9.4630 
  68   0.0000      -0.084425        -2.2973 
  69   0.0000      -0.019364        -0.5269 
  70   0.0000       0.010274         0.2796 
  71   0.0000       0.021579         0.5872 
  72   0.0000       0.071602         1.9484 
  73   0.0000       0.079560         2.1649 
  74   0.0000       0.126709         3.4479 
  75   0.0000       0.141217         3.8427 
  76   0.0000       0.145136         3.9494 
  77   0.0000       0.146999         4.0001 
  78   0.0000       0.155737         4.2378 
  79   0.0000       0.175473         4.7749 
  80   0.0000       0.177417         4.8278 
  81   0.0000       0.187233         5.0949 
  82   0.0000       0.192021         5.2251 
  83   0.0000       0.193023         5.2524 
  84   0.0000       0.229945         6.2571 
  85   0.0000       0.232342         6.3224 
  86   0.0000       0.238427         6.4879 
  87   0.0000       0.240378         6.5410 
  88   0.0000       0.248683         6.7670 
  89   0.0000       0.253232         6.8908 
  90   0.0000       0.253242         6.8911 
  91   0.0000       0.256025         6.9668 
  92   0.0000       0.256662         6.9841 
  93   0.0000       0.269662         7.3379 
  94   0.0000       0.275475         7.4961 
  95   0.0000       0.275495         7.4966 
  96   0.0000       0.284599         7.7443 
  97   0.0000       0.294965         8.0264 
  98   0.0000       0.294978         8.0268 
  99   0.0000       0.302993         8.2449 
 100   0.0000       0.307356         8.3636 
 101   0.0000       0.307850         8.3770 
 102   0.0000       0.313408         8.5283 
 103   0.0000       0.322222         8.7681 
 104   0.0000       0.323240         8.7958 
 105   0.0000       0.331088         9.0094 
 106   0.0000       0.332718         9.0537 
 107   0.0000       0.338673         9.2158 
 108   0.0000       0.351217         9.5571 
 109   0.0000       0.368536        10.0284 
 110   0.0000       0.371321        10.1041 
 111   0.0000       0.378525        10.3002 
 112   0.0000       0.378759        10.3066 
 113   0.0000       0.392013        10.6672 
 114   0.0000       0.397386        10.8134 
 115   0.0000       0.402869        10.9626 
 116   0.0000       0.407774        11.0961 
 117   0.0000       0.409858        11.1528 
 118   0.0000       0.425743        11.5851 
 119   0.0000       0.428354        11.6561 
 120   0.0000       0.434882        11.8337 
 121   0.0000       0.434993        11.8368 
 122   0.0000       0.436667        11.8823 
 123   0.0000       0.441286        12.0080 
 124   0.0000       0.444971        12.1083 
 125   0.0000       0.461537        12.5591 
 126   0.0000       0.465248        12.6601 
 127   0.0000       0.468404        12.7459 
 128   0.0000       0.487640        13.2694 
 129   0.0000       0.492330        13.3970 
 130   0.0000       0.495273        13.4771 
 131   0.0000       0.516283        14.0488 
 132   0.0000       0.524821        14.2811 
 133   0.0000       0.530556        14.4372 
 134   0.0000       0.542103        14.7514 
 135   0.0000       0.543612        14.7924 
 136   0.0000       0.547855        14.9079 
 137   0.0000       0.548075        14.9139 
 138   0.0000       0.561221        15.2716 
 139   0.0000       0.565234        15.3808 
 140   0.0000       0.567624        15.4458 
 141   0.0000       0.569510        15.4971 
 142   0.0000       0.580609        15.7992 
 143   0.0000       0.587918        15.9981 
 144   0.0000       0.592954        16.1351 
 145   0.0000       0.594497        16.1771 
 146   0.0000       0.599147        16.3036 
 147   0.0000       0.607222        16.5233 
 148   0.0000       0.615567        16.7504 
 149   0.0000       0.626812        17.0564 
 150   0.0000       0.636815        17.3286 
 151   0.0000       0.666387        18.1333 
 152   0.0000       0.670105        18.2345 
 153   0.0000       0.679516        18.4906 
 154   0.0000       0.679736        18.4966 
 155   0.0000       0.683834        18.6081 
 156   0.0000       0.687201        18.6997 
 157   0.0000       0.693977        18.8841 
 158   0.0000       0.694344        18.8941 
 159   0.0000       0.696849        18.9622 
 160   0.0000       0.714912        19.4537 
 161   0.0000       0.718486        19.5510 
 162   0.0000       0.732115        19.9219 
 163   0.0000       0.740882        20.1604 
 164   0.0000       0.741044        20.1648 
 165   0.0000       0.752282        20.4706 
 166   0.0000       0.761937        20.7334 
 167   0.0000       0.776265        21.1232 
 168   0.0000       0.777026        21.1439 
 169   0.0000       0.778351        21.1800 
 170   0.0000       0.779729        21.2175 
 171   0.0000       0.780128        21.2284 
 172   0.0000       0.782045        21.2805 
 173   0.0000       0.782725        21.2990 
 174   0.0000       0.800124        21.7725 
 175   0.0000       0.807171        21.9642 
 176   0.0000       0.821056        22.3421 
 177   0.0000       0.821476        22.3535 
 178   0.0000       0.835726        22.7413 
 179   0.0000       0.836830        22.7713 
 180   0.0000       0.842906        22.9366 
 181   0.0000       0.847385        23.0585 
 182   0.0000       0.855866        23.2893 
 183   0.0000       0.857466        23.3328 
 184   0.0000       0.860498        23.4153 
 185   0.0000       0.872500        23.7419 
 186   0.0000       0.880376        23.9562 
 187   0.0000       0.886535        24.1239 
 188   0.0000       0.886721        24.1289 
 189   0.0000       0.888094        24.1663 
 190   0.0000       0.892788        24.2940 
 191   0.0000       0.894694        24.3459 
 192   0.0000       0.897547        24.4235 
 193   0.0000       0.904962        24.6253 
 194   0.0000       0.921828        25.0842 
 195   0.0000       0.924065        25.1451 
 196   0.0000       0.939304        25.5598 
 197   0.0000       0.939741        25.5716 
 198   0.0000       0.964053        26.2332 
 199   0.0000       0.977060        26.5871 
 200   0.0000       1.002307        27.2741 
 201   0.0000       1.004736        27.3403 
 202   0.0000       1.027254        27.9530 
 203   0.0000       1.032252        28.0890 
 204   0.0000       1.034892        28.1608 
 205   0.0000       1.046783        28.4844 
 206   0.0000       1.046973        28.4896 
 207   0.0000       1.067703        29.0537 
 208   0.0000       1.072923        29.1957 
 209   0.0000       1.078626        29.3509 
 210   0.0000       1.090659        29.6783 
 211   0.0000       1.096533        29.8382 
 212   0.0000       1.099472        29.9182 
 213   0.0000       1.146847        31.2073 
 214   0.0000       1.147936        31.2369 
 215   0.0000       1.159607        31.5545 
 216   0.0000       1.161675        31.6108 
 217   0.0000       1.196445        32.5569 
 218   0.0000       1.202464        32.7207 
 219   0.0000       1.222627        33.2694 
 220   0.0000       1.228285        33.4233 
 221   0.0000       1.235027        33.6068 
 222   0.0000       1.247909        33.9573 
 223   0.0000       1.275232        34.7008 
 224   0.0000       1.296447        35.2781 
 225   0.0000       1.309482        35.6328 
 226   0.0000       1.324331        36.0369 
 227   0.0000       1.328589        36.1527 
 228   0.0000       1.351934        36.7880 
 229   0.0000       1.352170        36.7944 
 230   0.0000       1.362102        37.0647 
 231   0.0000       1.372164        37.3385 
 232   0.0000       1.373958        37.3873 
 233   0.0000       1.377781        37.4913 
 234   0.0000       1.385250        37.6946 
 235   0.0000       1.385761        37.7085 
 236   0.0000       1.396686        38.0058 
 237   0.0000       1.424424        38.7605 
 238   0.0000       1.435358        39.0581 
 239   0.0000       1.448954        39.4281 
 240   0.0000       1.454583        39.5812 
 241   0.0000       1.478977        40.2450 
 242   0.0000       1.487272        40.4707 
 243   0.0000       1.490803        40.5668 
 244   0.0000       1.510768        41.1101 
 245   0.0000       1.511601        41.1328 
 246   0.0000       1.518179        41.3118 
 247   0.0000       1.518324        41.3157 
 248   0.0000       1.522509        41.4296 
 249   0.0000       1.523206        41.4485 
 250   0.0000       1.544829        42.0369 
 251   0.0000       1.546795        42.0904 
 252   0.0000       1.548815        42.1454 
 253   0.0000       1.577531        42.9268 
 254   0.0000       1.577795        42.9340 
 255   0.0000       1.581265        43.0284 
 256   0.0000       1.590255        43.2731 
 257   0.0000       1.613466        43.9046 
 258   0.0000       1.625512        44.2324 
 259   0.0000       1.632241        44.4155 
 260   0.0000       1.632747        44.4293 
 261   0.0000       1.640148        44.6307 
 262   0.0000       1.641690        44.6727 
 263   0.0000       1.685236        45.8576 
 264   0.0000       1.692454        46.0540 
 265   0.0000       1.703685        46.3596 
 266   0.0000       1.716074        46.6967 
 267   0.0000       1.716160        46.6991 
 268   0.0000       1.725032        46.9405 
 269   0.0000       1.731055        47.1044 
 270   0.0000       1.747311        47.5468 
 271   0.0000       1.753959        47.7276 
 272   0.0000       1.757598        47.8267 
 273   0.0000       1.766443        48.0674 
 274   0.0000       1.771919        48.2164 
 275   0.0000       1.803781        49.0834 
 276   0.0000       1.804027        49.0901 
 277   0.0000       1.806195        49.1491 
 278   0.0000       1.825567        49.6762 
 279   0.0000       1.861946        50.6661 
 280   0.0000       1.867937        50.8291 
 281   0.0000       1.875028        51.0221 
 282   0.0000       1.880704        51.1765 
 283   0.0000       1.904212        51.8163 
 284   0.0000       1.917156        52.1685 
 285   0.0000       1.925304        52.3902 
 286   0.0000       1.939531        52.7773 
 287   0.0000       1.963331        53.4250 
 288   0.0000       1.978929        53.8494 
 289   0.0000       1.979829        53.8739 
 290   0.0000       1.981033        53.9066 
 291   0.0000       1.989449        54.1357 
 292   0.0000       2.006311        54.5945 
 293   0.0000       2.026502        55.1439 
 294   0.0000       2.060032        56.0563 
 295   0.0000       2.070689        56.3463 
 296   0.0000       2.076566        56.5062 
 297   0.0000       2.084915        56.7334 
 298   0.0000       2.088260        56.8244 
 299   0.0000       2.103729        57.2454 
 300   0.0000       2.118532        57.6482 
 301   0.0000       2.130555        57.9754 
 302   0.0000       2.139942        58.2308 
 303   0.0000       2.140255        58.2393 
 304   0.0000       2.145544        58.3832 
 305   0.0000       2.150800        58.5263 
 306   0.0000       2.151826        58.5542 
 307   0.0000       2.157149        58.6990 
 308   0.0000       2.197252        59.7903 
 309   0.0000       2.205186        60.0062 
 310   0.0000       2.209612        60.1266 
 311   0.0000       2.215552        60.2882 
 312   0.0000       2.243386        61.0456 
 313   0.0000       2.244238        61.0688 
 314   0.0000       2.249173        61.2031 
 315   0.0000       2.269006        61.7428 
 316   0.0000       2.280227        62.0481 
 317   0.0000       2.288126        62.2631 
 318   0.0000       2.300963        62.6124 
 319   0.0000       2.312956        62.9387 
 320   0.0000       2.324850        63.2624 
 321   0.0000       2.345454        63.8230 
 322   0.0000       2.347067        63.8669 
 323   0.0000       2.366578        64.3979 
 324   0.0000       2.382310        64.8260 
 325   0.0000       2.390508        65.0490 
 326   0.0000       2.394834        65.1668 
 327   0.0000       2.397239        65.2322 
 328   0.0000       2.404868        65.4398 
 329   0.0000       2.440989        66.4227 
 330   0.0000       2.455576        66.8196 
 331   0.0000       2.474509        67.3348 
 332   0.0000       2.481500        67.5251 
 333   0.0000       2.482343        67.5480 
 334   0.0000       2.485903        67.6449 
 335   0.0000       2.514359        68.4192 
 336   0.0000       2.563704        69.7619 
 337   0.0000       2.573644        70.0324 
 338   0.0000       2.574698        70.0611 
 339   0.0000       2.597115        70.6711 
 340   0.0000       2.600114        70.7527 
 341   0.0000       2.603682        70.8498 
 342   0.0000       2.611059        71.0505 
 343   0.0000       2.631174        71.5979 
 344   0.0000       2.641093        71.8678 
 345   0.0000       2.651574        72.1530 
 346   0.0000       2.659147        72.3591 
 347   0.0000       2.684641        73.0528 
 348   0.0000       2.694564        73.3228 
 349   0.0000       2.716254        73.9130 
 350   0.0000       2.733038        74.3697 
 351   0.0000       2.736931        74.4757 
 352   0.0000       2.737150        74.4816 
 353   0.0000       2.752646        74.9033 
 354   0.0000       2.758562        75.0643 
 355   0.0000       2.760347        75.1129 
 356   0.0000       2.767893        75.3182 
 357   0.0000       2.781633        75.6921 
 358   0.0000       2.785276        75.7912 
 359   0.0000       2.796781        76.1043 
 360   0.0000       2.800062        76.1936 
 361   0.0000       2.805789        76.3494 
 362   0.0000       2.806219        76.3611 
 363   0.0000       2.827003        76.9267 
 364   0.0000       2.840236        77.2868 
 365   0.0000       2.865603        77.9770 
 366   0.0000       2.867175        78.0198 
 367   0.0000       2.886916        78.5570 
 368   0.0000       2.895632        78.7941 
 369   0.0000       2.902171        78.9721 
 370   0.0000       2.902404        78.9784 
 371   0.0000       2.906373        79.0864 
 372   0.0000       2.906407        79.0874 
 373   0.0000       2.908208        79.1364 
 374   0.0000       2.934511        79.8521 
 375   0.0000       2.963455        80.6397 
 376   0.0000       2.964308        80.6629 
 377   0.0000       2.975144        80.9578 
 378   0.0000       2.990165        81.3665 
 379   0.0000       2.991960        81.4154 
 380   0.0000       2.995708        81.5174 
 381   0.0000       2.996194        81.5306 
 382   0.0000       3.002004        81.6887 
 383   0.0000       3.006885        81.8215 
 384   0.0000       3.013369        81.9980 
 385   0.0000       3.024899        82.3117 
 386   0.0000       3.039473        82.7083 
 387   0.0000       3.061700        83.3131 
 388   0.0000       3.066249        83.4369 
 389   0.0000       3.074341        83.6571 
 390   0.0000       3.078777        83.7778 
 391   0.0000       3.079996        83.8109 
 392   0.0000       3.087613        84.0182 
 393   0.0000       3.088751        84.0492 
 394   0.0000       3.103756        84.4575 
 395   0.0000       3.112339        84.6910 
 396   0.0000       3.114824        84.7587 
 397   0.0000       3.115155        84.7677 
 398   0.0000       3.130013        85.1720 
 399   0.0000       3.143849        85.5485 
 400   0.0000       3.148810        85.6835 
 401   0.0000       3.162571        86.0579 
 402   0.0000       3.165571        86.1396 
 403   0.0000       3.210659        87.3665 
 404   0.0000       3.218584        87.5821 
 405   0.0000       3.218881        87.5902 
 406   0.0000       3.226906        87.8086 
 407   0.0000       3.229369        87.8756 
 408   0.0000       3.231756        87.9406 
 409   0.0000       3.233280        87.9820 
 410   0.0000       3.254935        88.5713 
 411   0.0000       3.258678        88.6731 
 412   0.0000       3.260003        88.7092 
 413   0.0000       3.260671        88.7274 
 414   0.0000       3.264578        88.8337 
 415   0.0000       3.267325        88.9084 
 416   0.0000       3.295262        89.6686 
 417   0.0000       3.302338        89.8612 
 418   0.0000       3.305067        89.9354 
 419   0.0000       3.315408        90.2168 
 420   0.0000       3.318322        90.2961 
 421   0.0000       3.332285        90.6761 
 422   0.0000       3.340683        90.9046 
 423   0.0000       3.352108        91.2155 
 424   0.0000       3.357114        91.3517 
 425   0.0000       3.361844        91.4804 
 426   0.0000       3.365012        91.5666 
 427   0.0000       3.376260        91.8727 
 428   0.0000       3.381415        92.0130 
 429   0.0000       3.382972        92.0554 
 430   0.0000       3.413343        92.8818 
 431   0.0000       3.428665        93.2987 
 432   0.0000       3.431763        93.3830 
 433   0.0000       3.447137        93.8014 
 434   0.0000       3.454502        94.0018 
 435   0.0000       3.454992        94.0151 
 436   0.0000       3.457866        94.0933 
 437   0.0000       3.464279        94.2678 
 438   0.0000       3.465366        94.2974 
 439   0.0000       3.474722        94.5520 
 440   0.0000       3.500145        95.2438 
 441   0.0000       3.509641        95.5022 
 442   0.0000       3.510171        95.5166 
 443   0.0000       3.519391        95.7675 
 444   0.0000       3.522935        95.8639 
 445   0.0000       3.525809        95.9421 
 446   0.0000       3.539023        96.3017 
 447   0.0000       3.556652        96.7814 
 448   0.0000       3.574750        97.2739 
 449   0.0000       3.579109        97.3925 
 450   0.0000       3.586111        97.5830 
 451   0.0000       3.589447        97.6738 
 452   0.0000       3.595935        97.8504 
 453   0.0000       3.605411        98.1082 
 454   0.0000       3.618001        98.4508 
 455   0.0000       3.618856        98.4741 
 456   0.0000       3.634836        98.9089 
 457   0.0000       3.648059        99.2687 
 458   0.0000       3.662824        99.6705 
 459   0.0000       3.665024        99.7304 
 460   0.0000       3.679114       100.1138 
 461   0.0000       3.706299       100.8535 
 462   0.0000       3.706702       100.8645 
 463   0.0000       3.709844       100.9500 
 464   0.0000       3.729306       101.4796 
 465   0.0000       3.746335       101.9430 
 466   0.0000       3.747067       101.9629 
 467   0.0000       3.750286       102.0505 
 468   0.0000       3.755641       102.1962 
 469   0.0000       3.767695       102.5242 
 470   0.0000       3.788451       103.0890 
 471   0.0000       3.818578       103.9088 
 472   0.0000       3.821664       103.9928 
 473   0.0000       3.842769       104.5670 
 474   0.0000       3.871910       105.3600 
 475   0.0000       3.886235       105.7498 
 476   0.0000       3.927230       106.8654 
 477   0.0000       3.947853       107.4265 
 478   0.0000       4.001572       108.8883 
 479   0.0000       4.001659       108.8907 
 480   0.0000       4.009760       109.1111 
 481   0.0000       4.021991       109.4439 
 482   0.0000       4.065660       110.6322 
 483   0.0000       4.067312       110.6772 
 484   0.0000       4.085523       111.1727 
 485   0.0000       4.093814       111.3983 
 486   0.0000       4.101061       111.5955 
 487   0.0000       4.102286       111.6289 
 488   0.0000       4.113271       111.9278 
 489   0.0000       4.122607       112.1818 
 490   0.0000       4.127190       112.3065 
 491   0.0000       4.167557       113.4050 
 492   0.0000       4.176998       113.6619 
 493   0.0000       4.178605       113.7056 
 494   0.0000       4.198195       114.2387 
 495   0.0000       4.204249       114.4034 
 496   0.0000       4.212969       114.6407 
 497   0.0000       4.235209       115.2459 
 498   0.0000       4.241235       115.4099 
 499   0.0000       4.261044       115.9489 
 500   0.0000       4.273321       116.2830 
 501   0.0000       4.299953       117.0077 
 502   0.0000       4.363367       118.7332 
 503   0.0000       4.396333       119.6303 
 504   0.0000       4.397802       119.6703 
 505   0.0000       4.399655       119.7207 
 506   0.0000       4.402884       119.8086 
 507   0.0000       4.417262       120.1998 
 508   0.0000       4.428890       120.5162 
 509   0.0000       4.474868       121.7674 
 510   0.0000       4.477324       121.8342 
 511   0.0000       4.478735       121.8726 
 512   0.0000       4.498063       122.3985 
 513   0.0000       4.501447       122.4906 
 514   0.0000       4.505770       122.6082 
 515   0.0000       4.566495       124.2607 
 516   0.0000       4.589481       124.8861 
 517   0.0000       4.594327       125.0180 
 518   0.0000       4.608840       125.4129 
 519   0.0000       4.609727       125.4370 
 520   0.0000       4.619436       125.7013 
 521   0.0000       4.662187       126.8646 
 522   0.0000       4.683372       127.4410 
 523   0.0000       4.702077       127.9500 
 524   0.0000       4.763675       129.6262 
 525   0.0000       4.778836       130.0387 
 526   0.0000       4.817532       131.0917 
 527   0.0000       4.835364       131.5770 
 528   0.0000       4.847352       131.9031 
 529   0.0000       4.849258       131.9550 
 530   0.0000       4.854284       132.0918 
 531   0.0000       4.906275       133.5065 
 532   0.0000       4.956420       134.8710 
 533   0.0000       5.009276       136.3093 
 534   0.0000       5.032097       136.9303 
 535   0.0000       5.051258       137.4517 
 536   0.0000       5.054100       137.5291 
 537   0.0000       5.097030       138.6972 
 538   0.0000       5.119691       139.3139 
 539   0.0000       5.176353       140.8557 
 540   0.0000       5.219623       142.0332 
 541   0.0000       5.229395       142.2991 
 542   0.0000       5.230744       142.3358 
 543   0.0000       5.251236       142.8934 
 544   0.0000       5.251548       142.9019 
 545   0.0000       5.254802       142.9904 
 546   0.0000       5.268208       143.3552 
 547   0.0000       5.282988       143.7574 
 548   0.0000       5.292372       144.0128 
 549   0.0000       5.303869       144.3256 
 550   0.0000       5.309627       144.4823 
 551   0.0000       5.323402       144.8571 
 552   0.0000       5.335391       145.1834 
 553   0.0000       5.359252       145.8327 
 554   0.0000       5.377518       146.3297 
 555   0.0000       5.399208       146.9199 
 556   0.0000       5.401731       146.9886 
 557   0.0000       5.436457       147.9335 
 558   0.0000       5.456869       148.4890 
 559   0.0000       5.512421       150.0006 
 560   0.0000       5.534966       150.6141 
 561   0.0000       5.582231       151.9002 
 562   0.0000       5.662321       154.0796 
 563   0.0000       5.662446       154.0830 
 564   0.0000       5.670527       154.3029 
 565   0.0000       5.674731       154.4173 
 566   0.0000       5.681619       154.6047 
 567   0.0000       5.784064       157.3924 
 568   0.0000       5.804993       157.9619 
 569   0.0000       5.822668       158.4429 
 570   0.0000       5.892909       160.3542 
 571   0.0000       5.901447       160.5865 
 572   0.0000       5.905580       160.6990 
 573   0.0000       5.972882       162.5304 
 574   0.0000       5.987914       162.9394 
 575   0.0000       6.027340       164.0123 
 576   0.0000       6.070568       165.1886 
 577   0.0000       6.106322       166.1615 
 578   0.0000       6.107597       166.1962 
 579   0.0000       6.148073       167.2976 
 580   0.0000       6.150377       167.3603 
 581   0.0000       6.156647       167.5309 
 582   0.0000       6.257834       170.2843 
 583   0.0000       6.272108       170.6727 
 584   0.0000       6.341966       172.5737 
 585   0.0000       6.418020       174.6432 
 586   0.0000       6.423137       174.7824 
 587   0.0000       6.428078       174.9169 
 588   0.0000       6.430686       174.9879 
 589   0.0000       6.435749       175.1256 
 590   0.0000       6.441386       175.2790 
 591   0.0000       6.483024       176.4121 
 592   0.0000       6.494475       176.7236 
 593   0.0000       6.564442       178.6275 
 594   0.0000       6.575017       178.9153 
 595   0.0000       6.618875       180.1087 
 596   0.0000       6.639972       180.6828 
 597   0.0000       6.657978       181.1728 
 598   0.0000       6.662685       181.3009 
 599   0.0000       6.665327       181.3728 
 600   0.0000       6.762993       184.0304 
 601   0.0000       6.797147       184.9598 
 602   0.0000       6.871346       186.9788 
 603   0.0000       6.872890       187.0208 
 604   0.0000       6.879991       187.2141 
 605   0.0000       6.880777       187.2355 
 606   0.0000       6.891373       187.5238 
 607   0.0000       6.922521       188.3714 
 608   0.0000       6.928579       188.5362 
 609   0.0000       6.936675       188.7565 
 610   0.0000       7.035462       191.4446 
 611   0.0000       7.072666       192.4570 
 612   0.0000       7.111767       193.5210 
 613   0.0000       7.120840       193.7679 
 614   0.0000       7.149652       194.5519 
 615   0.0000       7.167199       195.0294 
 616   0.0000       7.248112       197.2311 
 617   0.0000       7.303426       198.7363 
 618   0.0000       7.310028       198.9160 
 619   0.0000       7.343479       199.8262 
 620   0.0000       7.417051       201.8282 
 621   0.0000       7.494462       203.9347 
 622   0.0000       7.500386       204.0959 
 623   0.0000       7.549940       205.4443 
 624   0.0000      22.254738       605.5822 
 625   0.0000      22.768406       619.5598 
 626   0.0000      22.849278       621.7605 
 627   0.0000      22.864673       622.1794 
 628   0.0000      22.970307       625.0538 
 629   0.0000      23.081049       628.0673 
 630   0.0000      23.170593       630.5039 
 631   0.0000      23.220047       631.8496 
 632   0.0000      23.427780       637.5023 
 633   0.0000      23.442578       637.9050 
 634   0.0000      23.450507       638.1207 
 635   0.0000      23.538606       640.5180 
 636   0.0000      23.557007       641.0187 
 637   0.0000      24.061756       654.7537 
 638   0.0000      43.952584      1196.0106 
 639   0.0000      43.985744      1196.9129 
 640   0.0000      43.990495      1197.0422 
 641   0.0000      44.027034      1198.0365 
 642   0.0000      44.370702      1207.3882 
 643   0.0000      44.461298      1209.8534 

                    ********************************
                    * MULLIKEN POPULATION ANALYSIS *
                    ********************************

-----------------------
MULLIKEN ATOMIC CHARGES
-----------------------
   0 O :   -0.342562
   1 C :    0.400363
   2 O :   -0.163712
   3 C :    0.408307
   4 O :   -0.350259
   5 C :   -0.008840
   6 C :   -0.136571
   7 C :   -0.147948
   8 C :    0.003761
   9 C :   -0.040563
  10 C :   -0.008834
  11 C :   -0.136564
  12 C :   -0.147960
  13 C :    0.003714
  14 C :   -0.040474
  15 C :    0.408298
  16 O :   -0.350258
  17 O :   -0.163718
  18 C :    0.400352
  19 O :   -0.342564
  20 H :    0.188814
  21 H :    0.189199
  22 H :    0.188816
  23 H :    0.189201
Sum of atomic charges:   -0.0000000

--------------------------------
MULLIKEN REDUCED ORBITAL CHARGES
--------------------------------
  0 O s       :     3.839931  s :     3.839931
      pz      :     1.372878  p :     4.470012
      px      :     1.317236
      py      :     1.779897
      dz2     :     0.002750  d :     0.030768
      dxz     :     0.011307
      dyz     :     0.000059
      dx2y2   :     0.008943
      dxy     :     0.007710
      f0      :     0.000185  f :     0.001851
      f+1     :     0.000160
      f-1     :     0.000021
      f+2     :     0.000476
      f-2     :     0.000010
      f+3     :     0.000441
      f-3     :     0.000557
  1 C s       :     3.002451  s :     3.002451
      pz      :     0.747858  p :     2.314527
      px      :     0.775528
      py      :     0.791141
      dz2     :     0.006526  d :     0.257864
      dxz     :     0.062431
      dyz     :     0.033529
      dx2y2   :     0.047456
      dxy     :     0.107922
      f0      :     0.003156  f :     0.024794
      f+1     :     0.001407
      f-1     :     0.001123
      f+2     :     0.003349
      f-2     :     0.002028
      f+3     :     0.003575
      f-3     :     0.010156
  2 O s       :     3.754197  s :     3.754197
      pz      :     1.653708  p :     4.366119
      px      :     1.263781
      py      :     1.448630
      dz2     :     0.005012  d :     0.041173
      dxz     :     0.005325
      dyz     :     0.004979
      dx2y2   :     0.015692
      dxy     :     0.010166
      f0      :     0.000332  f :     0.002223
      f+1     :     0.000349
      f-1     :     0.000223
      f+2     :     0.000139
      f-2     :     0.000149
      f+3     :     0.000524
      f-3     :     0.000507
  3 C s       :     3.001420  s :     3.001420
      pz      :     0.747257  p :     2.308167
      px      :     0.705511
      py      :     0.855399
      dz2     :     0.006437  d :     0.257407
      dxz     :     0.049896
      dyz     :     0.045938
      dx2y2   :     0.085672
      dxy     :     0.069464
      f0      :     0.003138  f :     0.024699
      f+1     :     0.001289
      f-1     :     0.001258
      f+2     :     0.003386
      f-2     :     0.001933
      f+3     :     0.003948
      f-3     :     0.009748
  4 O s       :     3.844458  s :     3.844458
      pz      :     1.373138  p :     4.472999
      px      :     1.678016
      py      :     1.421846
      dz2     :     0.002778  d :     0.030929
      dxz     :     0.002186
      dyz     :     0.009214
      dx2y2   :     0.008127
      dxy     :     0.008624
      f0      :     0.000187  f :     0.001872
      f+1     :     0.000056
      f-1     :     0.000131
      f+2     :     0.000178
      f-2     :     0.000312
      f+3     :     0.000455
      f-3     :     0.000554
  5 C s       :     3.143269  s :     3.143269
      pz      :     0.984304  p :     2.730803
      px      :     0.855386
      py      :     0.891113
      dz2     :     0.007332  d :     0.124816
      dxz     :     0.021288
      dyz     :     0.015665
      dx2y2   :     0.033449
      dxy     :     0.047083
      f0      :     0.001834  f :     0.009951
      f+1     :     0.000786
      f-1     :     0.000870
      f+2     :     0.000883
      f-2     :     0.000626
      f+3     :     0.001348
      f-3     :     0.003606
  6 C s       :     3.244942  s :     3.244942
      pz      :     0.885225  p :     2.793541
      px      :     0.929946
      py      :     0.978370
      dz2     :     0.004707  d :     0.090683
      dxz     :     0.018122
      dyz     :     0.009923
      dx2y2   :     0.026327
      dxy     :     0.031603
      f0      :     0.001560  f :     0.007406
      f+1     :     0.000602
      f-1     :     0.000686
      f+2     :     0.000857
      f-2     :     0.000395
      f+3     :     0.001075
      f-3     :     0.002231
  7 C s       :     3.255917  s :     3.255917
      pz      :     0.887298  p :     2.793866
      px      :     0.981490
      py      :     0.925078
      dz2     :     0.004624  d :     0.090746
      dxz     :     0.006448
      dyz     :     0.021808
      dx2y2   :     0.037792
      dxy     :     0.020074
      f0      :     0.001571  f :     0.007419
      f+1     :     0.000704
      f-1     :     0.000594
      f+2     :     0.000230
      f-2     :     0.001021
      f+3     :     0.001063
      f-3     :     0.002238
  8 C s       :     3.138740  s :     3.138740
[...]
      pz      :     1.285126  p :     4.390406
      px      :     1.497286
      py      :     1.607993
      dz2     :     0.008114  d :     0.067595
      dxz     :     0.015165
      dyz     :     0.000182
      dx2y2   :     0.025567
      dxy     :     0.018566
      f0      :     0.000500  f :     0.006452
      f+1     :     0.001030
      f-1     :     0.000112
      f+2     :     0.000916
      f-2     :     0.000045
      f+3     :     0.001996
      f-3     :     0.001852
  1 C s       :     2.739550  s :     2.739550
      pz      :     0.724143  p :     2.581269
      px      :     0.960865
      py      :     0.896261
      dz2     :     0.060627  d :     0.908714
      dxz     :     0.158818
      dyz     :     0.090498
      dx2y2   :     0.247217
      dxy     :     0.351554
      f0      :     0.009525  f :     0.151257
      f+1     :     0.011224
      f-1     :     0.007551
      f+2     :     0.021746
      f-2     :     0.012801
      f+3     :     0.027492
      f-3     :     0.060919
  2 O s       :     3.230066  s :     3.230066
      pz      :     1.521047  p :     4.315929
      px      :     1.331145
      py      :     1.463737
      dz2     :     0.012682  d :     0.102366
      dxz     :     0.012852
      dyz     :     0.007277
      dx2y2   :     0.038378
      dxy     :     0.031176
      f0      :     0.000525  f :     0.006229
      f+1     :     0.000844
      f-1     :     0.000456
      f+2     :     0.000526
      f-2     :     0.000444
      f+3     :     0.001352
      f-3     :     0.002082
  3 C s       :     2.739367  s :     2.739367
      pz      :     0.724025  p :     2.581155
      px      :     0.846478
      py      :     1.010652
      dz2     :     0.060653  d :     0.908767
      dxz     :     0.120734
      dyz     :     0.128651
      dx2y2   :     0.322234
      dxy     :     0.276495
      f0      :     0.009516  f :     0.151233
      f+1     :     0.009588
      f-1     :     0.009207
      f+2     :     0.022373
      f-2     :     0.012136
      f+3     :     0.031458
      f-3     :     0.056955
  4 O s       :     3.388280  s :     3.388280
      pz      :     1.285227  p :     4.391026
      px      :     1.591789
      py      :     1.514010
      dz2     :     0.008108  d :     0.067609
      dxz     :     0.002443
      dyz     :     0.012900
      dx2y2   :     0.022601
      dxy     :     0.021556
      f0      :     0.000500  f :     0.006449
      f+1     :     0.000276
      f-1     :     0.000865
      f+2     :     0.000435
      f-2     :     0.000525
      f+3     :     0.001998
      f-3     :     0.001850
  5 C s       :     2.691540  s :     2.691540
      pz      :     0.854586  p :     2.835159
      px      :     1.018009
      py      :     0.962563
      dz2     :     0.035747  d :     0.487968
      dxz     :     0.068819
      dyz     :     0.053174
      dx2y2   :     0.145825
      dxy     :     0.184403
      f0      :     0.004152  f :     0.056660
      f+1     :     0.004500
      f-1     :     0.004351
      f+2     :     0.006661
      f-2     :     0.004714
      f+3     :     0.009950
      f-3     :     0.022331
  6 C s       :     2.752554  s :     2.752554
      pz      :     0.814505  p :     2.863055
      px      :     1.036494
      py      :     1.012057
      dz2     :     0.024728  d :     0.373941
      dxz     :     0.059278
      dyz     :     0.026916
      dx2y2   :     0.120095
      dxy     :     0.142924
      f0      :     0.003317  f :     0.043507
      f+1     :     0.004130
      f-1     :     0.003275
      f+2     :     0.006001
      f-2     :     0.002818
      f+3     :     0.008111
      f-3     :     0.015856
  7 C s       :     2.752550  s :     2.752550
      pz      :     0.815030  p :     2.863231
      px      :     1.005036
      py      :     1.043165
      dz2     :     0.024751  d :     0.374048
      dxz     :     0.013997
      dyz     :     0.072162
      dx2y2   :     0.160579
      dxy     :     0.102558
      f0      :     0.003320  f :     0.043524
      f+1     :     0.003064
      f-1     :     0.004352
      f+2     :     0.001493
      f-2     :     0.007311
      f+3     :     0.008143
      f-3     :     0.015842
  8 C s       :     2.691601  s :     2.691601
      pz      :     0.854296  p :     2.835077
      px      :     0.992883
      py      :     0.987897
      dz2     :     0.035754  d :     0.487920
      dxz     :     0.070160
      dyz     :     0.051817
      dx2y2   :     0.156472
      dxy     :     0.173717
      f0      :     0.004151  f :     0.056651
      f+1     :     0.004311
      f-1     :     0.004540
      f+2     :     0.006727
      f-2     :     0.004640
      f+3     :     0.010098
      f-3     :     0.022183
  9 C s       :     2.663527  s :     2.663527
      pz      :     0.817341  p :     2.773279
      px      :     0.977501
      py      :     0.978438
      dz2     :     0.033942  d :     0.516774
      dxz     :     0.076699
      dyz     :     0.072574
      dx2y2   :     0.167745
      dxy     :     0.165815
      f0      :     0.004228  f :     0.060606
      f+1     :     0.004216
      f-1     :     0.004203
      f+2     :     0.007186
      f-2     :     0.007388
      f+3     :     0.009776
      f-3     :     0.023610
 10 C s       :     2.691540  s :     2.691540
      pz      :     0.854592  p :     2.835165
      px      :     1.018010
      py      :     0.962563
      dz2     :     0.035747  d :     0.487969
      dxz     :     0.068819
      dyz     :     0.053174
      dx2y2   :     0.145825
      dxy     :     0.184403
      f0      :     0.004152  f :     0.056660
      f+1     :     0.004500
      f-1     :     0.004351
      f+2     :     0.006661
      f-2     :     0.004714
      f+3     :     0.009950
      f-3     :     0.022331
 11 C s       :     2.752554  s :     2.752554
      pz      :     0.814502  p :     2.863052
      px      :     1.036494
      py      :     1.012057
      dz2     :     0.024728  d :     0.373941
      dxz     :     0.059278
      dyz     :     0.026916
      dx2y2   :     0.120095
      dxy     :     0.142924
      f0      :     0.003317  f :     0.043507
      f+1     :     0.004130
      f-1     :     0.003275
      f+2     :     0.006001
      f-2     :     0.002818
      f+3     :     0.008111
      f-3     :     0.015856
 12 C s       :     2.752549  s :     2.752549
      pz      :     0.815032  p :     2.863233
      px      :     1.005036
      py      :     1.043165
      dz2     :     0.024751  d :     0.374047
      dxz     :     0.013997
      dyz     :     0.072162
      dx2y2   :     0.160579
      dxy     :     0.102558
      f0      :     0.003320  f :     0.043524
      f+1     :     0.003064
      f-1     :     0.004352
      f+2     :     0.001493
      f-2     :     0.007311
      f+3     :     0.008143
      f-3     :     0.015842
 13 C s       :     2.691601  s :     2.691601
      pz      :     0.854291  p :     2.835071
      px      :     0.992884
      py      :     0.987897
      dz2     :     0.035754  d :     0.487919
      dxz     :     0.070159
      dyz     :     0.051817
      dx2y2   :     0.156472
      dxy     :     0.173717
      f0      :     0.004151  f :     0.056652
      f+1     :     0.004311
      f-1     :     0.004540
      f+2     :     0.006727
      f-2     :     0.004640
      f+3     :     0.010098
      f-3     :     0.022183
 14 C s       :     2.663526  s :     2.663526
      pz      :     0.817338  p :     2.773276
      px      :     0.977500
      py      :     0.978437
      dz2     :     0.033942  d :     0.516772
      dxz     :     0.076698
      dyz     :     0.072573
      dx2y2   :     0.167745
      dxy     :     0.165815
      f0      :     0.004228  f :     0.060606
      f+1     :     0.004216
      f-1     :     0.004203
      f+2     :     0.007186
      f-2     :     0.007388
      f+3     :     0.009776
      f-3     :     0.023610
 15 C s       :     2.739367  s :     2.739367
      pz      :     0.724028  p :     2.581159
      px      :     0.846478
      py      :     1.010653
      dz2     :     0.060653  d :     0.908769
      dxz     :     0.120734
      dyz     :     0.128652
      dx2y2   :     0.322235
      dxy     :     0.276495
      f0      :     0.009516  f :     0.151233
      f+1     :     0.009588
      f-1     :     0.009207
      f+2     :     0.022373
      f-2     :     0.012136
      f+3     :     0.031458
      f-3     :     0.056955
 16 O s       :     3.388280  s :     3.388280
      pz      :     1.285227  p :     4.391024
      px      :     1.591788
      py      :     1.514009
      dz2     :     0.008108  d :     0.067609
      dxz     :     0.002443
      dyz     :     0.012900
      dx2y2   :     0.022601
      dxy     :     0.021556
      f0      :     0.000500  f :     0.006449
      f+1     :     0.000276
      f-1     :     0.000865
      f+2     :     0.000435
      f-2     :     0.000525
      f+3     :     0.001998
      f-3     :     0.001850
 17 O s       :     3.230067  s :     3.230067
      pz      :     1.521046  p :     4.315928
      px      :     1.331146
      py      :     1.463737
      dz2     :     0.012682  d :     0.102366
      dxz     :     0.012852
      dyz     :     0.007277
      dx2y2   :     0.038378
      dxy     :     0.031176
      f0      :     0.000525  f :     0.006229
      f+1     :     0.000844
      f-1     :     0.000456
      f+2     :     0.000526
      f-2     :     0.000444
      f+3     :     0.001352
      f-3     :     0.002082
 18 C s       :     2.739550  s :     2.739550
      pz      :     0.724147  p :     2.581273
      px      :     0.960865
      py      :     0.896261
      dz2     :     0.060627  d :     0.908716
      dxz     :     0.158819
      dyz     :     0.090498
      dx2y2   :     0.247217
      dxy     :     0.351555
      f0      :     0.009525  f :     0.151258
      f+1     :     0.011224
      f-1     :     0.007551
      f+2     :     0.021746
      f-2     :     0.012801
      f+3     :     0.027492
      f-3     :     0.060919
 19 O s       :     3.388047  s :     3.388047
      pz      :     1.285124  p :     4.390403
      px      :     1.497286
      py      :     1.607993
      dz2     :     0.008114  d :     0.067595
      dxz     :     0.015165
      dyz     :     0.000182
      dx2y2   :     0.025567
      dxy     :     0.018566
      f0      :     0.000500  f :     0.006452
      f+1     :     0.001030
      f-1     :     0.000112
      f+2     :     0.000916
      f-2     :     0.000045
      f+3     :     0.001996
      f-3     :     0.001852
 20 H s       :     0.766413  s :     0.766413
      pz      :     0.011473  p :     0.060920
      px      :     0.016104
      py      :     0.033343
 21 H s       :     0.766700  s :     0.766700
      pz      :     0.011466  p :     0.061030
      px      :     0.039212
      py      :     0.010352
 22 H s       :     0.766412  s :     0.766412
      pz      :     0.011473  p :     0.060920
      px      :     0.016104
      py      :     0.033343
 23 H s       :     0.766700  s :     0.766700
      pz      :     0.011466  p :     0.061030
      px      :     0.039212
      py      :     0.010352


                      *****************************
                      * MAYER POPULATION ANALYSIS *
                      *****************************

  NA   - Mulliken gross atomic population
  ZA   - Total nuclear charge
  QA   - Mulliken gross atomic charge
  VA   - Mayer's total valence
  BVA  - Mayer's bonded valence
  FA   - Mayer's free valence

  ATOM       NA         ZA         QA         VA         BVA        FA
  0 O      8.3097     8.0000    -0.3097     2.1905     2.1905    -0.0000
  1 C      5.6157     6.0000     0.3843     4.2739     4.2739    -0.0000
  2 O      8.1856     8.0000    -0.1856     2.2124     2.2124    -0.0000
  3 C      5.6082     6.0000     0.3918     4.2651     4.2651    -0.0000
  4 O      8.3169     8.0000    -0.3169     2.1848     2.1848    -0.0000
  5 C      6.0089     6.0000    -0.0089     3.6861     3.6861    -0.0000
  6 C      6.1271     6.0000    -0.1271     3.8690     3.8690    -0.0000
  7 C      6.1376     6.0000    -0.1376     3.8668     3.8668    -0.0000
  8 C      5.9968     6.0000     0.0032     3.6678     3.6678    -0.0000
  9 C      6.0639     6.0000    -0.0639     4.0296     4.0296    -0.0000
 10 C      6.0089     6.0000    -0.0089     3.6862     3.6862    -0.0000
 11 C      6.1271     6.0000    -0.1271     3.8690     3.8690    -0.0000
 12 C      6.1376     6.0000    -0.1376     3.8668     3.8668    -0.0000
 13 C      5.9968     6.0000     0.0032     3.6679     3.6679    -0.0000
 14 C      6.0639     6.0000    -0.0639     4.0297     4.0297    -0.0000
 15 C      5.6081     6.0000     0.3919     4.2651     4.2651    -0.0000
 16 O      8.3169     8.0000    -0.3169     2.1848     2.1848    -0.0000
 17 O      8.1856     8.0000    -0.1856     2.2124     2.2124    -0.0000
 18 C      5.6157     6.0000     0.3843     4.2739     4.2739    -0.0000
 19 O      8.3097     8.0000    -0.3097     2.1905     2.1905    -0.0000
 20 H      0.8146     1.0000     0.1854     0.9737     0.9737    -0.0000
 21 H      0.8150     1.0000     0.1850     0.9739     0.9739    -0.0000
 22 H      0.8146     1.0000     0.1854     0.9737     0.9737    -0.0000
 23 H      0.8150     1.0000     0.1850     0.9739     0.9739    -0.0000

  Mayer bond orders larger than 0.100000
B(  0-O ,  1-C ) :   2.1133 B(  1-C ,  2-O ) :   1.1223 B(  1-C , 13-C ) :   0.9568 
B(  2-O ,  3-C ) :   1.1256 B(  3-C ,  4-O ) :   2.1047 B(  3-C ,  5-C ) :   0.9572 
B(  5-C ,  6-C ) :   1.4803 B(  5-C , 14-C ) :   1.2329 B(  6-C ,  7-C ) :   1.2305 
B(  6-C , 20-H ) :   0.9702 B(  7-C ,  8-C ) :   1.4693 B(  7-C , 21-H ) :   0.9741 
B(  8-C ,  9-C ) :   1.2375 B(  8-C , 18-C ) :   0.9568 B(  9-C , 10-C ) :   1.2329 
B(  9-C , 14-C ) :   1.4208 B( 10-C , 11-C ) :   1.4803 B( 10-C , 15-C ) :   0.9572 
B( 11-C , 12-C ) :   1.2305 B( 11-C , 22-H ) :   0.9702 B( 12-C , 13-C ) :   1.4693 
B( 12-C , 23-H ) :   0.9741 B( 13-C , 14-C ) :   1.2375 B( 15-C , 16-O ) :   2.1047 
B( 15-C , 17-O ) :   1.1255 B( 17-O , 18-C ) :   1.1223 B( 18-C , 19-O ) :   2.1133 


-------
TIMINGS
-------

Total SCF time: 0 days 0 hours 15 min 49 sec 

Total time                  ....     949.754 sec
Sum of individual times     ....     948.478 sec  ( 99.9%)

Fock matrix formation       ....     944.656 sec  ( 99.5%)
  XC integration            ....       6.577 sec  (  0.7% of F)
    Basis function eval.    ....       1.248 sec  ( 19.0% of XC)
    Density eval.           ....       1.842 sec  ( 28.0% of XC)
    XC-Functional eval.     ....       0.363 sec  (  5.5% of XC)
    XC-Potential eval.      ....       2.697 sec  ( 41.0% of XC)
Diagonalization             ....       0.249 sec  (  0.0%)
Density matrix formation    ....       0.040 sec  (  0.0%)
Population analysis         ....       0.166 sec  (  0.0%)
Initial guess               ....       0.248 sec  (  0.0%)
Orbital Transformation      ....       0.000 sec  (  0.0%)
Orbital Orthonormalization  ....       0.216 sec  (  0.0%)
DIIS solution               ....       0.073 sec  (  0.0%)
SOSCF solution              ....       1.033 sec  (  0.1%)
Grid generation             ....       2.013 sec  (  0.2%)


-------------------------------------------------------------------------------
                          DFT DISPERSION CORRECTION                            
                                                                               
                              DFTD3 V3.1  Rev 1                                
                              USING zero damping                               
-------------------------------------------------------------------------------
The omegaB97X-D3 functional is recognized. Fit by Chai et al.
Active option DFTDOPT                   ...         3   

molecular C6(AA) [au] = 9450.905082 


            DFT-D V3
 parameters
 s6 scaling factor         :     1.0000 
 rs6 scaling factor        :     1.2810 
 s8 scaling factor         :     1.0000 
 rs8 scaling factor        :     1.0940 
 Damping factor alpha6     :    14.0000 
 Damping factor alpha8     :    16.0000 
 ad hoc parameters k1-k3   :    16.0000     1.3333    -4.0000 

 Edisp/kcal,au: -6.689869684691  -0.010660984810 
 E6   /kcal   :  -2.970695647 
 E8   /kcal   :  -3.719174038 
 % E8         :  55.594117869 

-------------------------   ----------------
Dispersion correction           -0.010660985
-------------------------   ----------------


-------------------------   --------------------
FINAL SINGLE POINT ENERGY      -987.416031366918
-------------------------   --------------------

                                *** OPTIMIZATION RUN DONE ***

                            ***************************************
                            *     ORCA property calculations      *
                            ***************************************

                                    ---------------------
                                    Active property flags
                                    ---------------------
   (+) Dipole Moment


------------------------------------------------------------------------------
                       ORCA ELECTRIC PROPERTIES CALCULATION
------------------------------------------------------------------------------

Dipole Moment Calculation                       ... on
Quadrupole Moment Calculation                   ... off
Polarizability Calculation                      ... off
GBWName                                         ... NTCDA.gbw
Electron density file                           ... NTCDA.scfp
The origin for moment calculation is the CENTER OF MASS  = ( 9.122823, -3.339978 -0.114294)

-------------
DIPOLE MOMENT
-------------
                                X             Y             Z
Electronic contribution:     -0.00004       0.00006      -0.00007
Nuclear contribution   :      0.00000       0.00000      -0.00012
                        -----------------------------------------
Total Dipole Moment    :     -0.00004       0.00006      -0.00018
                        -----------------------------------------
Magnitude (a.u.)       :      0.00020
Magnitude (Debye)      :      0.00050



--------------------
Rotational spectrum 
--------------------
 
Rotational constants in cm-1:     0.021656     0.009746     0.006721 
Rotational constants in MHz :   649.218053   292.167298   201.490597 

 Dipole components along the rotational axes: 
x,y,z [a.u.] :     0.000071    -0.000001    -0.000182 
x,y,z [Debye]:     0.000180    -0.000001    -0.000463 

 
--------------------------------------------------------------------------
[[37909,1],3]: A high-performance Open MPI point-to-point messaging module
was unable to find any relevant network interfaces:

Module: OpenFabrics (openib)
  Host: compute-0-2

Another transport will be used instead, although this may result in
lower performance.

NOTE: You can disable this warning by setting the MCA parameter
btl_base_warn_component_unused to 0.
--------------------------------------------------------------------------
[compute-0-2.local:38476] 3 more processes have sent help message help-mpi-btl-base.txt / btl:no-nics
[compute-0-2.local:38476] Set MCA parameter "orte_base_help_aggregate" to 0 to see all help / error messages

Timings for individual modules:

Sum of individual times         ...    21136.618 sec (= 352.277 min)
GTO integral calculation        ...       12.560 sec (=   0.209 min)   0.1 %
SCF iterations                  ...    12550.592 sec (= 209.177 min)  59.4 %
SCF Gradient evaluation         ...     8570.687 sec (= 142.845 min)  40.5 %
Geometry relaxation             ...        2.779 sec (=   0.046 min)   0.0 %
                             ****ORCA TERMINATED NORMALLY****
TOTAL RUN TIME: 0 days 5 hours 52 minutes 19 seconds 946 msec
