Warning: no access to tty (Bad file descriptor).
Thus no job control in this shell.

                                 *****************
                                 * O   R   C   A *
                                 *****************

           --- An Ab Initio, DFT and Semiempirical electronic structure package ---

                  #######################################################
                  #                        -***-                        #
                  #          Department of theory and spectroscopy      #
                  #               Directorship: Frank Neese             #
                  #        Max Planck Institute fuer Kohlenforschung    #
                  #                Kaiser Wilhelm Platz 1               #
                  #                 D-45470 Muelheim/Ruhr               #
                  #                      Germany                        #
                  #                                                     #
                  #                  All rights reserved                #
                  #                        -***-                        #
                  #######################################################


                         Program Version 4.2.1 -  RELEASE  -


 With contributions from (in alphabetic order):
   Daniel Aravena         : Magnetic Suceptibility
   Michael Atanasov       : Ab Initio Ligand Field Theory (pilot matlab implementation)
   Alexander A. Auer      : GIAO ZORA, VPT2
   Ute Becker             : Parallelization
   Giovanni Bistoni       : ED, misc. LED, open-shell LED, HFLD
   Martin Brehm           : Molecular dynamics
   Dmytro Bykov           : SCF Hessian
   Vijay G. Chilkuri      : MRCI spin determinant printing, contributions to CSF-ICE
   Dipayan Datta          : RHF DLPNO-CCSD density
   Achintya Kumar Dutta   : EOM-CC, STEOM-CC
   Dmitry Ganyushin       : Spin-Orbit,Spin-Spin,Magnetic field MRCI
   Miquel Garcia          : C-PCM Hessian, Gaussian charge scheme
   Yang Guo               : DLPNO-NEVPT2, CIM, IAO-localization
   Andreas Hansen         : Spin unrestricted coupled pair/coupled cluster methods
   Benjamin Helmich-Paris : CASSCF linear response (MC-RPA)
   Lee Huntington         : MR-EOM, pCC
   Robert Izsak           : Overlap fitted RIJCOSX, COSX-SCS-MP3, EOM
   Christian Kollmar      : KDIIS, OOCD, Brueckner-CCSD(T), CCSD density
   Simone Kossmann        : Meta GGA functionals, TD-DFT gradient, OOMP2, MP2 Hessian
   Martin Krupicka        : AUTO-CI
   Lucas Lang             : DCDCAS
   Dagmar Lenk            : GEPOL surface, SMD
   Dimitrios Liakos       : Extrapolation schemes; Compound Job, initial MDCI parallelization
   Dimitrios Manganas     : Further ROCIS development; embedding schemes
   Dimitrios Pantazis     : SARC Basis sets
   Taras Petrenko         : DFT Hessian,TD-DFT gradient, ASA, ECA, R-Raman, ABS, FL, XAS/XES, NRVS
   Peter Pinski           : DLPNO-MP2, DLPNO-MP2 Gradient
   Christoph Reimann      : Effective Core Potentials
   Marius Retegan         : Local ZFS, SOC
   Christoph Riplinger    : Optimizer, TS searches, QM/MM, DLPNO-CCSD(T), (RO)-DLPNO pert. Triples
   Tobias Risthaus        : Range-separated hybrids, TD-DFT gradient, RPA, STAB
   Michael Roemelt        : Original ROCIS implementation
   Masaaki Saitow         : Open-shell DLPNO-CCSD energy and density
   Barbara Sandhoefer     : DKH picture change effects
   Avijit Sen             : IP-ROCIS
   Kantharuban Sivalingam : CASSCF convergence, NEVPT2, FIC-MRCI
   Bernardo de Souza      : ESD, SOC TD-DFT
   Georgi Stoychev        : AutoAux, RI-MP2 NMR
   Willem Van den Heuvel  : Paramagnetic NMR
   Boris Wezisla          : Elementary symmetry handling
   Frank Wennmohs         : Technical directorship


 We gratefully acknowledge several colleagues who have allowed us to
 interface, adapt or use parts of their codes:
   Stefan Grimme, W. Hujo, H. Kruse,             : VdW corrections, initial TS optimization,
                  C. Bannwarth                     DFT functionals, gCP, sTDA/sTD-DF
   Ed Valeev, F. Pavosevic, A. Kumar             : LibInt (2-el integral package), F12 methods
   Garnet Chan, S. Sharma, J. Yang, R. Olivares  : DMRG
   Ulf Ekstrom                                   : XCFun DFT Library
   Mihaly Kallay                                 : mrcc  (arbitrary order and MRCC methods)
   Andreas Klamt, Michael Diedenhofen            : otool_cosmo (COSMO solvation model)
   Jiri Pittner, Ondrej Demel                    : Mk-CCSD
   Frank Weinhold                                : gennbo (NPA and NBO analysis)
   Christopher J. Cramer and Donald G. Truhlar   : smd solvation model
   Lars Goerigk                                  : TD-DFT with DH, B97 family of functionals
   V. Asgeirsson, H. Jonsson                     : NEB implementation
   FAccTs GmbH                                   : IRC, NEB, NEB-TS, Multilevel, MM, QM/MM, CI optimization
   S Lehtola, MJT Oliveira, MAL Marques          : LibXC Library


 Your calculation uses the libint2 library for the computation of 2-el integrals
 For citations please refer to: http://libint.valeyev.net

 Your ORCA version has been built with support for libXC version: 4.2.3
 For citations please refer to: https://tddft.org/programs/libxc/

 This ORCA versions uses:
   CBLAS   interface :  Fast vector & matrix operations
   LAPACKE interface :  Fast linear algebra routines
   SCALAPACK package :  Parallel linear algebra routines


Your calculation utilizes the atom-pairwise dispersion correction
with the zero-damping scheme (D30)
Cite in your paper:
S.Grimme, J.Antony, S.Ehrlich and H.Krieg, J.Chem.Phys., 132, (2010), 154104 
   

XCFun DFT library Copyright 2009-2010 Ulf Ekstrom and contributors.
See http://admol.org/xcfun for more information. This is free soft-
ware; see the source code for copying conditions. There is ABSOLUTELY
NO WARRANTY; not even for MERCHANTABILITY or FITNESS FOR A PARTICULAR
PURPOSE. For details see the documentation. Scientific users of this 
library should cite U. Ekstrom, L. Visscher, R. Bast, A. J. Thorvald-
sen and K. Ruud; J.Chem.Theor.Comp. 2010, DOI: 10.1021/ct100117s
XCFun Version 0.99 
----- Orbital basis set information -----
Your calculation utilizes the basis: def2-TZVP
   F. Weigend and R. Ahlrichs, Phys. Chem. Chem. Phys. 7, 3297 (2005).

----- AuxJ basis set information -----
Your calculation utilizes the auxiliary basis: def2/J
   F. Weigend, Phys. Chem. Chem. Phys. 8, 1057 (2006).

================================================================================
                                        WARNINGS
                       Please study these warnings very carefully!
================================================================================


WARNING: Geometry Optimization
  ===> : Switching off AutoStart
         For restart on a previous wavefunction, please use MOREAD

INFO   : the flag for use of LIBINT has been found!

================================================================================
                                       INPUT FILE
================================================================================
NAME = HAT-CN6.inp
|  1> # avogadro generated ORCA input file 
|  2> # Basic Mode
|  3> # 
|  4> ! wB97X-D3 OPT def2-TZVP def2/J CPCM
|  5> %cpcm
|  6>   epsilon 3
|  7> end
|  8> %pal
|  9>  nprocs 4
| 10> end 
| 11> 
| 12> * xyz 0 1
| 13>    N        1.31033        0.02579       -0.05722
| 14>    C        2.46683        0.03909       -0.06048
| 15>    C        3.89657        0.05994       -0.06514
| 16>    N        4.53027       -1.13107       -0.06869
| 17>    C        5.88282       -1.18397       -0.07362
| 18>    C        6.52168       -2.41681       -0.07612
| 19>    N        5.79786       -3.56256       -0.07309
| 20>    C        6.42411       -4.76039       -0.07530
| 21>    C        5.60495       -5.92969       -0.07022
| 22>    N        4.94989       -6.88276       -0.06613
| 23>    C        7.81736       -4.82288       -0.07948
| 24>    C        8.52954       -6.05981       -0.08073
| 25>    N        9.09897       -7.06621       -0.08171
| 26>    N        8.54768       -3.68655       -0.08283
| 27>    C        7.92898       -2.48110       -0.08186
| 28>    C        8.67697       -1.31210       -0.08554
| 29>    N       10.02862       -1.38357       -0.09144
| 30>    C       10.76913       -0.25612       -0.09587
| 31>    C       12.19069       -0.40842       -0.10233
| 32>    N       13.34120       -0.52807       -0.10755
| 33>    C       10.14294        0.99091       -0.09429
| 34>    C       10.89066        2.20839       -0.10075
| 35>    N       11.51827        3.17982       -0.10607
| 36>    N        8.78920        1.07748       -0.08752
| 37>    C        8.03478       -0.05166       -0.08299
| 38>    C        6.63782        0.01231       -0.07629
| 39>    N        5.99053        1.20591       -0.07219
| 40>    C        4.63478        1.24424       -0.06623
| 41>    C        4.00279        2.52572       -0.05990
| 42>    N        3.46834        3.55139       -0.05471
| 43> *
| 44> 
| 45> 
| 46>                          ****END OF INPUT****
================================================================================

                       *****************************
                       * Geometry Optimization Run *
                       *****************************

Geometry optimization settings:
Update method            Update   .... BFGS
Choice of coordinates    CoordSys .... Z-matrix Internals
Initial Hessian          InHess   .... Almoef's Model

Convergence Tolerances:
Energy Change            TolE     ....  5.0000e-06 Eh
Max. Gradient            TolMAXG  ....  3.0000e-04 Eh/bohr
RMS Gradient             TolRMSG  ....  1.0000e-04 Eh/bohr
Max. Displacement        TolMAXD  ....  4.0000e-03 bohr
RMS Displacement         TolRMSD  ....  2.0000e-03 bohr
Strict Convergence                ....  False
------------------------------------------------------------------------------
                        ORCA OPTIMIZATION COORDINATE SETUP
------------------------------------------------------------------------------

The optimization will be done in new redundant internal coordinates
Making redundant internal coordinates   ...  (new redundants) done
Evaluating the initial hessian          ...  (Almloef) done
Evaluating the coordinates              ...  done
Calculating the B-matrix                .... done
Calculating the G-matrix                .... done
Diagonalizing the G-matrix              .... done
Small eigenvalue found = 1.370e-02
Small eigenvalue found = 1.393e-02
The first mode is                       ....   63
The number of degrees of freedom        ....   84

    -----------------------------------------------------------------
                    Redundant Internal Coordinates


    -----------------------------------------------------------------
         Definition                    Initial Value    Approx d2E/dq
    -----------------------------------------------------------------
      1. B(C   1,N   0)                  1.1566         1.319108   
      2. B(C   2,C   1)                  1.4299         0.539612   
      3. B(N   3,C   2)                  1.3491         0.650303   
      4. B(C   4,N   3)                  1.3536         0.639676   
      5. B(C   5,C   4)                  1.3885         0.628157   
      6. B(N   6,C   5)                  1.3552         0.635825   
      7. B(C   7,N   6)                  1.3517         0.644230   
      8. B(C   8,C   7)                  1.4277         0.544001   
      9. B(N   9,C   8)                  1.1565         1.319563   
     10. B(C  10,C   7)                  1.3947         0.614198   
     11. B(C  11,C  10)                  1.4273         0.544781   
     12. B(N  12,C  11)                  1.1563         1.320339   
     13. B(N  13,C  10)                  1.3508         0.646306   
     14. B(C  14,N  13)                  1.3550         0.636486   
     15. B(C  14,C   5)                  1.4088         0.583146   
     16. B(C  15,C  14)                  1.3878         0.629804   
     17. B(N  16,C  15)                  1.3536         0.639775   
     18. B(C  17,N  16)                  1.3489         0.650812   
     19. B(C  18,C  17)                  1.4297         0.539988   
     20. B(N  19,C  18)                  1.1567         1.318403   
     21. B(C  20,C  17)                  1.3954         0.612476   
     22. B(C  21,C  20)                  1.4288         0.541855   
     23. B(N  22,C  21)                  1.1565         1.319278   
     24. B(N  23,C  20)                  1.3565         0.632830   
     25. B(C  24,N  23)                  1.3580         0.629435   
     26. B(C  24,C  15)                  1.4146         0.570787   
     27. B(C  25,C  24)                  1.3984         0.605722   
     28. B(C  25,C   4)                  1.4146         0.570791   
     29. B(N  26,C  25)                  1.3578         0.629814   
     30. B(C  27,N  26)                  1.3563         0.633336   
     31. B(C  27,C   2)                  1.3955         0.612217   
     32. B(C  28,C  27)                  1.4289         0.541675   
     33. B(N  29,C  28)                  1.1566         1.319144   
     34. L(N   0,C   1,C   2,N   3, 1) 180.1766         0.482438   
     35. L(N   0,C   1,C   2,N   3, 2) 179.9494         0.482438   
     36. A(C   1,C   2,C  27)          122.7720         0.422434   
     37. A(N   3,C   2,C  27)          120.0471         0.433955   
     38. A(C   1,C   2,N   3)          117.1809         0.424239   
     39. A(C   2,N   3,C   4)          120.2561         0.434531   
     40. A(N   3,C   4,C  25)          120.0174         0.427264   
     41. A(N   3,C   4,C   5)          119.6332         0.434676   
     42. A(C   5,C   4,C  25)          120.3494         0.428671   
     43. A(N   6,C   5,C  14)          119.6670         0.428443   
     44. A(C   4,C   5,N   6)          120.3239         0.434204   
     45. A(C   4,C   5,C  14)          120.0091         0.430321   
     46. A(C   5,N   6,C   7)          120.1158         0.433327   
     47. A(C   8,C   7,C  10)          122.4456         0.423290   
     48. A(N   6,C   7,C  10)          120.1697         0.433475   
     49. A(N   6,C   7,C   8)          117.3845         0.424141   
     50. L(C   7,C   8,N   9,N   6, 2) 180.0013         0.483191   
     51. L(C   7,C   8,N   9,N   6, 1) 180.5120         0.483191   
     52. A(C   7,C  10,C  11)          122.4999         0.423399   
     53. A(C  11,C  10,N  13)          117.3391         0.424494   
     54. A(C   7,C  10,N  13)          120.1610         0.433726   
     55. L(C  10,C  11,N  12,N  13, 2) 179.9996         0.483372   
     56. L(C  10,C  11,N  12,N  13, 1) 180.4302         0.483372   
     57. A(C  10,N  13,C  14)          120.1016         0.433659   
     58. A(N  13,C  14,C  15)          120.2171         0.434490   
     59. A(C   5,C  14,C  15)          119.9980         0.430523   
     60. A(C   5,C  14,N  13)          119.7848         0.428523   
     61. A(C  14,C  15,N  16)          119.5869         0.434893   
     62. A(N  16,C  15,C  24)          120.0256         0.427275   
     63. A(C  14,C  15,C  24)          120.3875         0.428872   
     64. A(C  15,N  16,C  17)          120.2706         0.434604   
     65. A(C  18,C  17,C  20)          122.7783         0.422519   
     66. A(N  16,C  17,C  20)          120.0393         0.434049   
     67. A(N  16,C  17,C  18)          117.1823         0.424351   
     68. L(C  17,C  18,N  19,N  16, 2) 180.0011         0.482453   
     69. L(C  17,C  18,N  19,N  16, 1) 180.1778         0.482453   
     70. A(C  17,C  20,C  21)          121.7797         0.422779   
     71. A(C  21,C  20,N  23)          117.8981         0.422491   
     72. A(C  17,C  20,N  23)          120.3222         0.431868   
     73. L(C  20,C  21,N  22,N  23, 2) 180.0006         0.482820   
     74. L(C  20,C  21,N  22,N  23, 1) 181.3089         0.482820   
     75. A(C  20,N  23,C  24)          120.0898         0.431155   
     76. A(N  23,C  24,C  25)          121.1269         0.430592   
     77. A(C  15,C  24,C  25)          119.6207         0.425886   
     78. A(C  15,C  24,N  23)          119.2523         0.426030   
     79. A(C  24,C  25,N  26)          121.0933         0.430639   
     80. A(C   4,C  25,N  26)          119.2714         0.426077   
     81. A(C   4,C  25,C  24)          119.6353         0.425886   
     82. A(C  25,N  26,C  27)          120.0909         0.431264   
     83. A(N  26,C  27,C  28)          117.8713         0.422527   
     84. A(C   2,C  27,C  28)          121.8116         0.422722   
     85. A(C   2,C  27,N  26)          120.3170         0.431897   
     86. L(C  27,C  28,N  29,N  26, 2) 180.0000         0.482781   
     87. L(C  27,C  28,N  29,N  26, 1) 181.2716         0.482781   
     88. D(C   4,N   3,C   2,C  27)     -0.0147         0.031256   
     89. D(C   4,N   3,C   2,C   1)    179.9788         0.031256   
     90. D(C  25,C   4,N   3,C   2)     -0.0571         0.030163   
     91. D(C   5,C   4,N   3,C   2)    179.9472         0.030163   
     92. D(N   6,C   5,C   4,N   3)     -0.0273         0.027348   
     93. D(N   6,C   5,C   4,C  25)    179.9770         0.027348   
     94. D(C  14,C   5,C   4,N   3)    179.9714         0.027348   
     95. D(C  14,C   5,C   4,C  25)     -0.0243         0.027348   
     96. D(C   7,N   6,C   5,C  14)      0.0131         0.029773   
     97. D(C   7,N   6,C   5,C   4)   -179.9882         0.029773   
     98. D(C  10,C   7,N   6,C   5)      0.0583         0.030629   
     99. D(C   8,C   7,N   6,C   5)    179.9243         0.030629   
    100. D(C  11,C  10,C   7,C   8)      0.0825         0.026075   
    101. D(N  13,C  10,C   7,N   6)     -0.0731         0.026075   
    102. D(C  11,C  10,C   7,N   6)    179.9416         0.026075   
    103. D(N  13,C  10,C   7,C   8)   -179.9321         0.026075   
    104. D(C  14,N  13,C  10,C  11)    179.9998         0.030842   
    105. D(C  14,N  13,C  10,C   7)      0.0137         0.030842   
    106. D(C  15,C  14,N  13,C  10)   -179.9883         0.029840   
    107. D(C   5,C  14,N  13,C  10)      0.0575         0.029840   
    108. D(C  15,C  14,C   5,N   6)    179.9738         0.023375   
    109. D(C  15,C  14,C   5,C   4)     -0.0250         0.023375   
    110. D(N  13,C  14,C   5,N   6)     -0.0719         0.023375   
    111. D(N  13,C  14,C   5,C   4)    179.9293         0.023375   
    112. D(C  24,C  15,C  14,N  13)   -179.9271         0.027501   
    113. D(C  24,C  15,C  14,C   5)      0.0270         0.027501   
    114. D(N  16,C  15,C  14,N  13)      0.0650         0.027501   
    115. D(N  16,C  15,C  14,C   5)   -179.9809         0.027501   
    116. D(C  17,N  16,C  15,C  24)     -0.0471         0.030173   
    117. D(C  17,N  16,C  15,C  14)    179.9608         0.030173   
    118. D(C  18,C  17,N  16,C  15)   -179.9850         0.031309   
    119. D(C  20,C  17,N  16,C  15)      0.0044         0.031309   
    120. D(N  23,C  20,C  17,C  18)   -179.9728         0.025920   
    121. D(N  23,C  20,C  17,N  16)      0.0384         0.025920   
    122. D(C  21,C  20,C  17,C  18)      0.0788         0.025920   
    123. D(C  21,C  20,C  17,N  16)   -179.9099         0.025920   
    124. D(C  24,N  23,C  20,C  21)    179.9135         0.029472   
    125. D(C  24,N  23,C  20,C  17)     -0.0369         0.029472   
    126. D(C  25,C  24,N  23,C  20)   -179.9855         0.029132   
    127. D(C  15,C  24,N  23,C  20)     -0.0057         0.029132   
    128. D(C  25,C  24,C  15,N  16)   -179.9717         0.022351   
    129. D(C  25,C  24,C  15,C  14)      0.0204         0.022351   
    130. D(N  23,C  24,C  15,N  16)      0.0481         0.022351   
    131. D(N  23,C  24,C  15,C  14)   -179.9598         0.022351   
    132. D(N  26,C  25,C  24,N  23)     -0.0940         0.025319   
    133. D(N  26,C  25,C  24,C  15)    179.9263         0.025319   
    134. D(C   4,C  25,C  24,N  23)    179.9107         0.025319   
    135. D(C   4,C  25,C  24,C  15)     -0.0690         0.025319   
    136. D(N  26,C  25,C   4,C   5)   -179.9239         0.022352   
    137. D(N  26,C  25,C   4,N   3)      0.0804         0.022352   
    138. D(C  24,C  25,C   4,C   5)      0.0714         0.022352   
    139. D(C  24,C  25,C   4,N   3)   -179.9242         0.022352   
    140. D(C  27,N  26,C  25,C  24)    179.9745         0.029170   
    141. D(C  27,N  26,C  25,C   4)     -0.0302         0.029170   
    142. D(C  28,C  27,N  26,C  25)    179.9001         0.029522   
    143. D(C   2,C  27,N  26,C  25)     -0.0413         0.029522   
    144. D(C  28,C  27,C   2,N   3)   -179.8736         0.025897   
    145. D(C  28,C  27,C   2,C   1)      0.1332         0.025897   
    146. D(N  26,C  27,C   2,N   3)      0.0654         0.025897   
    147. D(N  26,C  27,C   2,C   1)   -179.9278         0.025897   
    -----------------------------------------------------------------

Number of atoms                         .... 30
Number of degrees of freedom            .... 147

         *************************************************************
         *                GEOMETRY OPTIMIZATION CYCLE   1            *
         *************************************************************
---------------------------------
CARTESIAN COORDINATES (ANGSTROEM)
---------------------------------
  N      1.310330    0.025790   -0.057220
  C      2.466830    0.039090   -0.060480
  C      3.896570    0.059940   -0.065140
  N      4.530270   -1.131070   -0.068690
  C      5.882820   -1.183970   -0.073620
  C      6.521680   -2.416810   -0.076120
  N      5.797860   -3.562560   -0.073090
  C      6.424110   -4.760390   -0.075300
  C      5.604950   -5.929690   -0.070220
  N      4.949890   -6.882760   -0.066130
  C      7.817360   -4.822880   -0.079480
  C      8.529540   -6.059810   -0.080730
  N      9.098970   -7.066210   -0.081710
  N      8.547680   -3.686550   -0.082830
  C      7.928980   -2.481100   -0.081860
  C      8.676970   -1.312100   -0.085540
  N     10.028620   -1.383570   -0.091440
  C     10.769130   -0.256120   -0.095870
  C     12.190690   -0.408420   -0.102330
  N     13.341200   -0.528070   -0.107550
  C     10.142940    0.990910   -0.094290
  C     10.890660    2.208390   -0.100750
  N     11.518270    3.179820   -0.106070
  N      8.789200    1.077480   -0.087520
  C      8.034780   -0.051660   -0.082990
  C      6.637820    0.012310   -0.076290
  N      5.990530    1.205910   -0.072190
  C      4.634780    1.244240   -0.066230
  C      4.002790    2.525720   -0.059900
  N      3.468340    3.551390   -0.054710

----------------------------
CARTESIAN COORDINATES (A.U.)
----------------------------
  NO LB      ZA    FRAG     MASS         X           Y           Z
   0 N     7.0000    0    14.007    2.476165    0.048736   -0.108130
   1 C     6.0000    0    12.011    4.661633    0.073869   -0.114291
   2 C     6.0000    0    12.011    7.363450    0.113270   -0.123097
   3 N     7.0000    0    14.007    8.560970   -2.137413   -0.129805
   4 C     6.0000    0    12.011   11.116919   -2.237379   -0.139122
   5 C     6.0000    0    12.011   12.324189   -4.567109   -0.143846
   6 N     7.0000    0    14.007   10.956368   -6.732263   -0.138120
   7 C     6.0000    0    12.011   12.139809   -8.995833   -0.142296
   8 C     6.0000    0    12.011   10.591820  -11.205490   -0.132697
   9 N     7.0000    0    14.007    9.353936  -13.006531   -0.124968
  10 C     6.0000    0    12.011   14.772669   -9.113922   -0.150195
  11 C     6.0000    0    12.011   16.118495  -11.451381   -0.152558
  12 N     7.0000    0    14.007   17.194561  -13.353202   -0.154410
  13 N     7.0000    0    14.007   16.152774   -6.966570   -0.156526
  14 C     6.0000    0    12.011   14.983601   -4.688600   -0.154693
  15 C     6.0000    0    12.011   16.397097   -2.479510   -0.161647
  16 N     7.0000    0    14.007   18.951345   -2.614568   -0.172797
  17 C     6.0000    0    12.011   20.350706   -0.483997   -0.181168
  18 C     6.0000    0    12.011   23.037065   -0.771802   -0.193376
  19 N     7.0000    0    14.007   25.211214   -0.997908   -0.203240
  20 C     6.0000    0    12.011   19.167379    1.872549   -0.178182
  21 C     6.0000    0    12.011   20.580365    4.173252   -0.190390
  22 N     7.0000    0    14.007   21.766376    6.008989   -0.200443
  23 N     7.0000    0    14.007   16.609181    2.036142   -0.165389
  24 C     6.0000    0    12.011   15.183534   -0.097623   -0.156828
  25 C     6.0000    0    12.011   12.543662    0.023263   -0.144167
  26 N     7.0000    0    14.007   11.320461    2.278840   -0.136419
  27 C     6.0000    0    12.011    8.758465    2.351273   -0.125157
  28 C     6.0000    0    12.011    7.564177    4.772919   -0.113195
  29 N     7.0000    0    14.007    6.554213    6.711154   -0.103387

--------------------------------
INTERNAL COORDINATES (ANGSTROEM)
--------------------------------
 N      0   0   0     0.000000000000     0.00000000     0.00000000
 C      1   0   0     1.156581068322     0.00000000     0.00000000
 C      2   1   0     1.429899613854   179.82160353     0.00000000
 N      3   2   1     1.349108265707   117.18088245   188.20322713
 C      4   3   2     1.353593076741   120.25614704   179.97884217
 C      5   4   3     1.388539814049   119.63321004   179.94716007
 N      6   5   4     1.355237114235   120.32393980   359.97265650
 C      7   6   5     1.351662182463   120.11576300   180.01183357
 C      8   7   6     1.427694435795   117.38451862   179.92430381
 N      9   8   7     1.156487248784   179.48796421   180.07345306
 C      8   7   6     1.394656959614   120.16972571     0.05825582
 C     11   8   7     1.427304361305   122.49990397   179.94156189
 N     12  11   8     1.156327135935   179.56976508   359.95615533
 N     11   8   7     1.350786583365   120.16101383   359.92691031
 C     14  11   8     1.354953996784   120.10162442     0.00000000
 C     15  14  11     1.387826928151   120.21714958   180.01168059
 N     16  15  14     1.353551067895   119.58691033     0.06498289
 C     17  16  15     1.348895172910   120.27063105   179.96079981
 C     18  17  16     1.429709710116   117.18233052   180.01504794
 N     19  18  17     1.156726688116   179.82216275   180.18276867
 C     18  17  16     1.395421167032   120.03932432     0.00000000
 C     21  18  17     1.428770268588   121.77965343   180.09005607
 N     22  21  18     1.156546090478   178.69111534   359.96313273
 N     21  18  17     1.356522091748   120.32223899     0.03844043
 C     24  21  18     1.357986449454   120.08983553   359.96311990
 C     25  24  21     1.398439949551   121.12694987   180.01447589
 N     26  25  24     1.357822563555   121.09329090   359.90600955
 C     27  26  25     1.356304823039   120.09085521   179.97451243
 C     28  27  26     1.428860531822   117.87133951   179.90007112
 N     29  28  27     1.156573684423   178.72838147   180.00014470

---------------------------
INTERNAL COORDINATES (A.U.)
---------------------------
 N      0   0   0     0.000000000000     0.00000000     0.00000000
 C      1   0   0     2.185621470806     0.00000000     0.00000000
 C      2   1   0     2.702118669184   179.82160353     0.00000000
 N      3   2   1     2.549445147196   117.18088245   188.20322713
 C      4   3   2     2.557920211812   120.25614704   179.97884217
 C      5   4   3     2.623959974599   119.63321004   179.94716007
 N      6   5   4     2.561026992430   120.32393980   359.97265650
 C      7   6   5     2.554271350433   120.11576300   180.01183357
 C      8   7   6     2.697951486576   117.38451862   179.92430381
 N      9   8   7     2.185444177574   179.48796421   180.07345306
 C      8   7   6     2.635519704438   120.16972571     0.05825582
 C     11   8   7     2.697214352618   122.49990397   179.94156189
 N     12  11   8     2.185141608139   179.56976508   359.95615533
 N     11   8   7     2.552616707936   120.16101383   359.92691031
 C     14  11   8     2.560491977983   120.10162442     0.00000000
 C     15  14  11     2.622612815486   120.21714958   180.01168059
 N     16  15  14     2.557840826598   119.58691033     0.06498289
 C     17  16  15     2.549042460168   120.27063105   179.96079981
 C     18  17  16     2.701759803127   117.18233052   180.01504794
 N     19  18  17     2.185896652337   179.82216275   180.18276867
 C     18  17  16     2.636963847167   120.03932432     0.00000000
 C     21  18  17     2.699984515920   121.77965343   180.09005607
 N     22  21  18     2.185555372261   178.69111534   359.96313273
 N     21  18  17     2.563455248017   120.32223899     0.03844043
 C     24  21  18     2.566222483044   120.08983553   359.96311990
 C     25  24  21     2.642668519386   121.12694987   180.01447589
 N     26  25  24     2.565912783578   121.09329090   359.90600955
 C     27  26  25     2.563044669661   120.09085521   179.97451243
 C     28  27  26     2.700155088714   117.87133951   179.90007112
 N     29  28  27     2.185607517260   178.72838147   180.00014470

---------------------
BASIS SET INFORMATION
---------------------
There are 2 groups of distinct atoms

 Group   1 Type N   : 11s6p2d1f contracted to 5s3p2d1f pattern {62111/411/11/1}
 Group   2 Type C   : 11s6p2d1f contracted to 5s3p2d1f pattern {62111/411/11/1}

Atom   0N    basis set group =>   1
Atom   1C    basis set group =>   2
Atom   2C    basis set group =>   2
Atom   3N    basis set group =>   1
Atom   4C    basis set group =>   2
Atom   5C    basis set group =>   2
Atom   6N    basis set group =>   1
Atom   7C    basis set group =>   2
Atom   8C    basis set group =>   2
Atom   9N    basis set group =>   1
Atom  10C    basis set group =>   2
Atom  11C    basis set group =>   2
Atom  12N    basis set group =>   1
Atom  13N    basis set group =>   1
Atom  14C    basis set group =>   2
Atom  15C    basis set group =>   2
Atom  16N    basis set group =>   1
Atom  17C    basis set group =>   2
Atom  18C    basis set group =>   2
Atom  19N    basis set group =>   1
Atom  20C    basis set group =>   2
Atom  21C    basis set group =>   2
Atom  22N    basis set group =>   1
Atom  23N    basis set group =>   1
Atom  24C    basis set group =>   2
Atom  25C    basis set group =>   2
Atom  26N    basis set group =>   1
Atom  27C    basis set group =>   2
Atom  28C    basis set group =>   2
Atom  29N    basis set group =>   1
---------------------------------
AUXILIARY/J BASIS SET INFORMATION
---------------------------------
There are 2 groups of distinct atoms

 Group   1 Type N   : 12s5p4d2f1g contracted to 6s4p3d1f1g pattern {711111/2111/211/2/1}
 Group   2 Type C   : 12s5p4d2f1g contracted to 6s4p3d1f1g pattern {711111/2111/211/2/1}

Atom   0N    basis set group =>   1
Atom   1C    basis set group =>   2
Atom   2C    basis set group =>   2
Atom   3N    basis set group =>   1
Atom   4C    basis set group =>   2
Atom   5C    basis set group =>   2
Atom   6N    basis set group =>   1
Atom   7C    basis set group =>   2
Atom   8C    basis set group =>   2
Atom   9N    basis set group =>   1
Atom  10C    basis set group =>   2
Atom  11C    basis set group =>   2
Atom  12N    basis set group =>   1
Atom  13N    basis set group =>   1
Atom  14C    basis set group =>   2
Atom  15C    basis set group =>   2
Atom  16N    basis set group =>   1
Atom  17C    basis set group =>   2
Atom  18C    basis set group =>   2
Atom  19N    basis set group =>   1
Atom  20C    basis set group =>   2
Atom  21C    basis set group =>   2
Atom  22N    basis set group =>   1
Atom  23N    basis set group =>   1
Atom  24C    basis set group =>   2
Atom  25C    basis set group =>   2
Atom  26N    basis set group =>   1
Atom  27C    basis set group =>   2
Atom  28C    basis set group =>   2
Atom  29N    basis set group =>   1
--------------------------------------------------------------------------
[[2402,1],2]: A high-performance Open MPI point-to-point messaging module
was unable to find any relevant network interfaces:

Module: OpenFabrics (openib)
  Host: compute-0-6

Another transport will be used instead, although this may result in
lower performance.

NOTE: You can disable this warning by setting the MCA parameter
btl_base_warn_component_unused to 0.
--------------------------------------------------------------------------


           ************************************************************
           *        Program running with 4 parallel MPI-processes     *
           *              working on a common directory               *
           ************************************************************
------------------------------------------------------------------------------
                           ORCA GTO INTEGRAL CALCULATION
------------------------------------------------------------------------------

                         BASIS SET STATISTICS AND STARTUP INFO

 # of primitive gaussian shells          ...  600
 # of primitive gaussian functions       ... 1380
 # of contracted shells                  ...  330
 # of contracted basis functions         ...  930
 Highest angular momentum                ...    3
 Maximum contraction depth               ...    6
 Integral package used                   ... LIBINT
 Integral threshhold            Thresh   ...  2.500e-11
 Primitive cut-off              TCut     ...  2.500e-12


------------------------------ INTEGRAL EVALUATION ----------------------------


 * One electron integrals 
 Pre-screening matrix                    ... done
 Shell pair data                         ... done (   0.018 sec)

[compute-0-6.local:45325] 3 more processes have sent help message help-mpi-btl-base.txt / btl:no-nics
[compute-0-6.local:45325] Set MCA parameter "orte_base_help_aggregate" to 0 to see all help / error messages
--------------------------------------------------------------------------
[[2381,1],1]: A high-performance Open MPI point-to-point messaging module
was unable to find any relevant network interfaces:

Module: OpenFabrics (openib)
  Host: compute-0-6

Another transport will be used instead, although this may result in
lower performance.

NOTE: You can disable this warning by setting the MCA parameter
btl_base_warn_component_unused to 0.
--------------------------------------------------------------------------


           ************************************************************
           *        Program running with 4 parallel MPI-processes     *
           *              working on a common directory               *
           ************************************************************
-------------------------------------------------------------------------------
                                 ORCA SCF
-------------------------------------------------------------------------------

------------
SCF SETTINGS
------------
Hamiltonian:
 Density Functional     Method          .... DFT(GTOs)
 Exchange Functional    Exchange        .... WB97X-D3
 Correlation Functional Correlation     .... WB97X-D3
 Gradients option       PostSCFGGA      .... off
 Hybrid DFT is turned on
   Fraction HF Exchange ScalHFX         ....  0.195728
   Scaling of DF-GGA-X  ScalDFX         ....  0.000000
   Scaling of DF-GGA-C  ScalDFC         ....  1.000000
   Scaling of DF-LDA-C  ScalLDAC        ....  1.000000
   Perturbative correction              ....  0.000000
   Density functional embedding theory  .... OFF
 Long-range corrected/Screened/Range-Separated Hybrid DFT is turned on
   Amount of maximum screened exact exchange              ....  0.804272
   Range separation parameter mu (erf(mu*r12)/r12)        ....  0.250000


General Settings:
 Integral files         IntName         .... HAT-CN6
 Hartree-Fock type      HFTyp           .... RHF
 Total Charge           Charge          ....    0
 Multiplicity           Mult            ....    1
 Number of Electrons    NEL             ....  192
 Basis Dimension        Dim             ....  930
 Nuclear Repulsion      ENuc            ....   2359.3418138843 Eh

Convergence Acceleration:
 DIIS                   CNVDIIS         .... on
   Start iteration      DIISMaxIt       ....    12
   Startup error        DIISStart       ....  0.200000
   # of expansion vecs  DIISMaxEq       ....     5
   Bias factor          DIISBfac        ....   1.050
   Max. coefficient     DIISMaxC        ....  10.000
 Newton-Raphson         CNVNR           .... off
 SOSCF                  CNVSOSCF        .... on
   Start iteration      SOSCFMaxIt      ....   150
   Startup grad/error   SOSCFStart      ....  0.003300
 Level Shifting         CNVShift        .... on
   Level shift para.    LevelShift      ....    0.2500
   Turn off err/grad.   ShiftErr        ....    0.0010
 Zerner damping         CNVZerner       .... off
 Static damping         CNVDamp         .... on
   Fraction old density DampFac         ....    0.7000
   Max. Damping (<1)    DampMax         ....    0.9800
   Min. Damping (>=0)   DampMin         ....    0.0000
   Turn off err/grad.   DampErr         ....    0.1000
 Fernandez-Rico         CNVRico         .... off

SCF Procedure:
 Maximum # iterations   MaxIter         ....   125
 SCF integral mode      SCFMode         .... Direct
   Integral package                     .... LIBINT
 Reset frequency        DirectResetFreq ....    20
 Integral Threshold     Thresh          ....  2.500e-11 Eh
 Primitive CutOff       TCut            ....  2.500e-12 Eh

Convergence Tolerance:
 Convergence Check Mode ConvCheckMode   .... Total+1el-Energy
 Convergence forced     ConvForced      .... 0
 Energy Change          TolE            ....  1.000e-08 Eh
 1-El. energy change                    ....  1.000e-05 Eh
 Orbital Gradient       TolG            ....  1.000e-05
 Orbital Rotation angle TolX            ....  1.000e-05
 DIIS Error             TolErr          ....  5.000e-07


Diagonalization of the overlap matrix:
Smallest eigenvalue                        ... 4.687e-07
Time for diagonalization                   ...    0.689 sec
Threshold for overlap eigenvalues          ... 1.000e-08
Number of eigenvalues below threshold      ... 0
Time for construction of square roots      ...    0.217 sec
Total time needed                          ...    0.911 sec

-------------------
DFT GRID GENERATION
-------------------

General Integration Accuracy     IntAcc      ...  4.340
Radial Grid Type                 RadialGrid  ... Gauss-Chebyshev
Angular Grid (max. acc.)         AngularGrid ... Lebedev-110
Angular grid pruning method      GridPruning ... 3 (G Style)
Weight generation scheme         WeightScheme... Becke
Basis function cutoff            BFCut       ...    1.0000e-11
Integration weight cutoff        WCut        ...    1.0000e-14
Grids for H and He will be reduced by one unit

# of grid points (after initial pruning)     ...  50232 (   0.0 sec)
# of grid points (after weights+screening)   ...  45773 (   0.2 sec)
nearest neighbour list constructed           ...    0.0 sec
Grid point re-assignment to atoms done       ...    0.0 sec
Grid point division into batches done        ...    0.1 sec
Reduced shell lists constructed in    0.6 sec

Total number of grid points                  ...    45773
Total number of batches                      ...      733
Average number of points per batch           ...       62
Average number of grid points per atom       ...     1526
Average number of shells per batch           ...   142.21 (43.09%)
Average number of basis functions per batch  ...   395.83 (42.56%)
Average number of large shells per batch     ...    96.02 (67.52%)
Average number of large basis fcns per batch ...   267.64 (67.62%)
Maximum spatial batch extension              ...  13.86, 21.73, 30.19 au
Average spatial batch extension              ...   0.65,  0.75,  1.08 au

Time for grid setup =    0.807 sec

------------------------------
INITIAL GUESS: MODEL POTENTIAL
------------------------------
Loading Hartree-Fock densities                     ... done
Calculating cut-offs                               ... done
Setting up the integral package                    ... done
Initializing the effective Hamiltonian             ... done
Starting the Coulomb interaction                   ... done (   1.4 sec)
Reading the grid                                   ... done
Mapping shells                                     ... done
Starting the XC term evaluation                    ... done (   1.5 sec)
  promolecular density results
     # of electrons  =    191.989504300
     EX              =   -170.169180185
     EC              =     -6.475207466
     EX+EC           =   -176.644387651
Transforming the Hamiltonian                       ... [compute-0-6.local:45346] 3 more processes have sent help message help-mpi-btl-base.txt / btl:no-nics
[compute-0-6.local:45346] Set MCA parameter "orte_base_help_aggregate" to 0 to see all help / error messages
done (   0.3 sec)
Diagonalizing the Hamiltonian                      ... done (   0.5 sec)
Back transforming the eigenvectors                 ... done (   0.1 sec)
Now organizing SCF variables                       ... done
                      ------------------
                      INITIAL GUESS DONE (   4.8 sec)
                      ------------------

--------------------
CPCM SOLVATION MODEL
--------------------
CPCM parameters:
  Epsilon                                         ...       3.0000
  Refrac                                          ...       1.3300
  Rsolv                                           ...       1.3000
  Surface type                                    ...    GEPOL SES
  Epsilon function type                           ...         CPCM
Radii:
 Radius for N  used is    3.4582 Bohr (=   1.8300 Ang.)
 Radius for C  used is    3.7795 Bohr (=   2.0000 Ang.)
Calculating surface                               ...        done! (  0.1s)
GEPOL surface points                              ...          978
GEPOL Volume                                      ...    2709.0173
GEPOL Surface-area                                ...    1377.5314
Calculating surface distance matrix               ...        done! (  0.0s)
Performing Cholesky decomposition & store         ...        done! (  0.1s)
Overall time for CPCM initialization              ...                 0.1s
--------------
SCF ITERATIONS
--------------
ITER       Energy         Delta-E        Max-DP      RMS-DP      [F,P]     Damp
               ***  Starting incremental Fock matrix formation  ***
  0  -1342.1968109537   0.000000000000 0.22927631  0.00209181  0.2635947 0.7000
  1  -1342.4804300836  -0.283619129869 0.18673000  0.00173033  0.1214755 0.7000
                               ***Turning on DIIS***
  2  -1342.5926916129  -0.112261529300 0.32299467  0.00317808  0.0387576 0.0000
  3  -1342.7924620481  -0.199770435175 0.11379221  0.00110542  0.0619539 0.0000
  4  -1342.8239184063  -0.031456358257 0.05204523  0.00047166  0.0140017 0.0000
                      *** Initiating the SOSCF procedure ***
                           *** Shutting down DIIS ***
                      *** Re-Reading the Fockian *** 
                      *** Removing any level shift *** 
ITER      Energy       Delta-E        Grad      Rot      Max-DP    RMS-DP
  5  -1342.82598084  -0.0020624357  0.002102  0.002102  0.018521  0.000160
               *** Restarting incremental Fock matrix formation ***
  6  -1342.82615876  -0.0001779190  0.000855  0.002328  0.006068  0.000071
  7  -1342.82621932  -0.0000605617  0.000722  0.002890  0.004350  0.000058
  8  -1342.82624477  -0.0000254428  0.000242  0.000696  0.002475  0.000026
  9  -1342.82624794  -0.0000031775  0.000119  0.000266  0.000542  0.000006
 10  -1342.82624837  -0.0000004223  0.000077  0.000219  0.000542  0.000005
 11  -1342.82624873  -0.0000003626  0.000009  0.000022  0.001384  0.000011
 12  -1342.82624872   0.0000000060  0.000006  0.000012  0.000265  0.000002
                  ***Gradient check signals convergence***
              ***Rediagonalizing the Fockian in SOSCF/NRSCF***

               *****************************************************
               *                     SUCCESS                       *
               *           SCF CONVERGED AFTER  13 CYCLES          *
               *****************************************************

Setting up the final grid:

General Integration Accuracy     IntAcc      ...  4.670
Radial Grid Type                 RadialGrid  ... Gauss-Chebyshev
Angular Grid (max. acc.)         AngularGrid ... Lebedev-302
Angular grid pruning method      GridPruning ... 3 (G Style)
Weight generation scheme         WeightScheme... Becke
Basis function cutoff            BFCut       ...    1.0000e-11
Integration weight cutoff        WCut        ...    1.0000e-14
Grids for H and He will be reduced by one unit

# of grid points (after initial pruning)     ... 186360 (   0.0 sec)
# of grid points (after weights+screening)   ... 166953 (   0.7 sec)
nearest neighbour list constructed           ...    0.0 sec
Grid point re-assignment to atoms done       ...    0.0 sec
Grid point division into batches done        ...    1.1 sec
Reduced shell lists constructed in    2.6 sec

Total number of grid points                  ...   166953
Total number of batches                      ...     2618
Average number of points per batch           ...       63
Average number of grid points per atom       ...     5565
Average number of shells per batch           ...   128.68 (38.99%)
Average number of basis functions per batch  ...   355.01 (38.17%)
Average number of large shells per batch     ...    85.94 (66.78%)
Average number of large basis fcns per batch ...   237.33 (66.85%)
Maximum spatial batch extension              ...  13.91, 14.66, 19.09 au
Average spatial batch extension              ...   0.49,  0.51,  0.60 au

Final grid set up in    3.4 sec
Final integration                            ... done (   5.3 sec)
Change in XC energy                          ...     0.007101804
Integrated number of electrons               ...   191.999780697
Previous integrated no of electrons          ...   191.997716724

----------------
TOTAL SCF ENERGY
----------------

Total Energy       :        -1342.81914690 Eh          -36539.96664 eV

Components:
Nuclear Repulsion  :         2359.34181388 Eh           64200.95467 eV
Electronic Energy  :        -3702.16096079 Eh         -100740.92131 eV
One Electron Energy:        -6500.04401354 Eh         -176875.18977 eV
Two Electron Energy:         2797.88305275 Eh           76134.26846 eV
CPCM Dielectric    :           -0.03377532 Eh              -0.91907 eV

Virial components:
Potential Energy   :        -2679.76272441 Eh          -72920.05091 eV
Kinetic Energy     :         1336.94357750 Eh           36380.08427 eV
Virial Ratio       :            2.00439478


DFT components:
N(Alpha)           :       95.999890348304 electrons
N(Beta)            :       95.999890348304 electrons
N(Total)           :      191.999780696607 electrons
E(XC)              :     -125.549460483266 Eh       
DFET-embed. en.    :        0.000000000000 Eh       
CPCM Solvation Model Properties:
Surface-charge          :           -0.03390771
Charge-correction       :            0.00052852 Eh               0.01438 eV
Free-energy (cav+disp)  :            0.00626312 Eh               0.17043 eV
Corrected G(solv)       :        -1342.81235526 Eh          -36539.78183 eV

---------------
SCF CONVERGENCE
---------------

  Last Energy change         ...    1.3636e-08  Tolerance :   1.0000e-08
  Last MAX-Density change    ...    4.5696e-04  Tolerance :   1.0000e-07
  Last RMS-Density change    ...    3.5356e-06  Tolerance :   5.0000e-09
  Last Orbital Gradient      ...    1.5428e-06  Tolerance :   1.0000e-05
  Last Orbital Rotation      ...    6.0536e-06  Tolerance :   1.0000e-05

             **** THE GBW FILE WAS UPDATED (HAT-CN6.gbw) ****
             **** DENSITY FILE WAS UPDATED (HAT-CN6.scfp) ****
             **** ENERGY FILE WAS UPDATED (HAT-CN6.en.tmp) ****
             **** THE GBW FILE WAS UPDATED (HAT-CN6.gbw) ****
             **** DENSITY FILE WAS UPDATED (HAT-CN6.scfp) ****
----------------
ORBITAL ENERGIES
----------------

  NO   OCC          E(Eh)            E(eV) 
   0   2.0000     -14.516479      -395.0135 
   1   2.0000     -14.516448      -395.0126 
   2   2.0000     -14.514637      -394.9633 
   3   2.0000     -14.514441      -394.9580 
   4   2.0000     -14.514344      -394.9554 
   5   2.0000     -14.514212      -394.9518 
   6   2.0000     -14.474544      -393.8724 
   7   2.0000     -14.474429      -393.8692 
   8   2.0000     -14.474382      -393.8680 
   9   2.0000     -14.474370      -393.8676 
  10   2.0000     -14.474293      -393.8655 
  11   2.0000     -14.474100      -393.8603 
  12   2.0000     -10.431539      -283.8566 
  13   2.0000     -10.431354      -283.8516 
  14   2.0000     -10.430646      -283.8323 
  15   2.0000     -10.430638      -283.8321 
  16   2.0000     -10.430525      -283.8290 
  17   2.0000     -10.430089      -283.8171 
  18   2.0000     -10.408100      -283.2188 
  19   2.0000     -10.407578      -283.2046 
  20   2.0000     -10.405586      -283.1504 
  21   2.0000     -10.405222      -283.1405 
  22   2.0000     -10.404666      -283.1253 
  23   2.0000     -10.404184      -283.1122 
  24   2.0000     -10.365994      -282.0730 
  25   2.0000     -10.365818      -282.0683 
  26   2.0000     -10.365726      -282.0657 
  27   2.0000     -10.365718      -282.0655 
  28   2.0000     -10.365474      -282.0589 
  29   2.0000     -10.365342      -282.0553 
  30   2.0000      -1.193936       -32.4887 
  31   2.0000      -1.173339       -31.9282 
  32   2.0000      -1.172881       -31.9157 
  33   2.0000      -1.106246       -30.1025 
  34   2.0000      -1.105907       -30.0933 
  35   2.0000      -1.088711       -29.6253 
  36   2.0000      -1.083482       -29.4830 
  37   2.0000      -1.073346       -29.2072 
  38   2.0000      -1.073298       -29.2059 
  39   2.0000      -1.066274       -29.0148 
  40   2.0000      -1.066196       -29.0127 
  41   2.0000      -1.062147       -28.9025 
  42   2.0000      -1.047830       -28.5129 
  43   2.0000      -0.988760       -26.9055 
  44   2.0000      -0.987970       -26.8840 
  45   2.0000      -0.926138       -25.2015 
  46   2.0000      -0.906636       -24.6708 
  47   2.0000      -0.905703       -24.6454 
  48   2.0000      -0.850998       -23.1568 
  49   2.0000      -0.838671       -22.8214 
  50   2.0000      -0.837830       -22.7985 
  51   2.0000      -0.770853       -20.9760 
  52   2.0000      -0.760546       -20.6955 
  53   2.0000      -0.759566       -20.6688 
  54   2.0000      -0.741613       -20.1803 
  55   2.0000      -0.727641       -19.8001 
  56   2.0000      -0.727116       -19.7858 
  57   2.0000      -0.688433       -18.7332 
  58   2.0000      -0.688137       -18.7252 
  59   2.0000      -0.671454       -18.2712 
  60   2.0000      -0.661694       -18.0056 
  61   2.0000      -0.648745       -17.6532 
  62   2.0000      -0.613133       -16.6842 
  63   2.0000      -0.612856       -16.6766 
  64   2.0000      -0.608433       -16.5563 
  65   2.0000      -0.608362       -16.5544 
  66   2.0000      -0.552132       -15.0243 
  67   2.0000      -0.533930       -14.5290 
  68   2.0000      -0.533625       -14.5207 
  69   2.0000      -0.520323       -14.1587 
  70   2.0000      -0.520181       -14.1548 
  71   2.0000      -0.519327       -14.1316 
  72   2.0000      -0.517913       -14.0931 
  73   2.0000      -0.517081       -14.0705 
  74   2.0000      -0.516662       -14.0591 
  75   2.0000      -0.516553       -14.0561 
  76   2.0000      -0.505186       -13.7468 
  77   2.0000      -0.505118       -13.7450 
  78   2.0000      -0.496311       -13.5053 
  79   2.0000      -0.494441       -13.4544 
  80   2.0000      -0.494072       -13.4444 
  81   2.0000      -0.492394       -13.3987 
  82   2.0000      -0.491738       -13.3809 
  83   2.0000      -0.486526       -13.2390 
  84   2.0000      -0.471321       -12.8253 
  85   2.0000      -0.471267       -12.8238 
  86   2.0000      -0.470527       -12.8037 
  87   2.0000      -0.470195       -12.7947 
  88   2.0000      -0.452916       -12.3245 
  89   2.0000      -0.450042       -12.2463 
  90   2.0000      -0.446855       -12.1596 
  91   2.0000      -0.429956       -11.6997 
  92   2.0000      -0.420771       -11.4498 
  93   2.0000      -0.419764       -11.4223 
  94   2.0000      -0.392213       -10.6727 
  95   2.0000      -0.391531       -10.6541 
  96   0.0000      -0.100355        -2.7308 
  97   0.0000      -0.100072        -2.7231 
  98   0.0000      -0.093698        -2.5496 
  99   0.0000      -0.027862        -0.7582 
 100   0.0000      -0.024009        -0.6533 
 101   0.0000      -0.023743        -0.6461 
 102   0.0000       0.042723         1.1626 
 103   0.0000       0.048909         1.3309 
 104   0.0000       0.049102         1.3361 
 105   0.0000       0.080590         2.1930 
 106   0.0000       0.080763         2.1977 
 107   0.0000       0.081214         2.2099 
 108   0.0000       0.081262         2.2112 
 109   0.0000       0.081836         2.2269 
 110   0.0000       0.094939         2.5834 
 111   0.0000       0.107819         2.9339 
 112   0.0000       0.108256         2.9458 
 113   0.0000       0.111091         3.0229 
 114   0.0000       0.112773         3.0687 
 115   0.0000       0.113142         3.0787 
 116   0.0000       0.128348         3.4925 
 117   0.0000       0.159206         4.3322 
 118   0.0000       0.159385         4.3371 
 119   0.0000       0.169436         4.6106 
 120   0.0000       0.170070         4.6278 
 121   0.0000       0.174203         4.7403 
 122   0.0000       0.180493         4.9115 
 123   0.0000       0.207656         5.6506 
 124   0.0000       0.221673         6.0320 
 125   0.0000       0.222432         6.0527 
 126   0.0000       0.224442         6.1074 
 127   0.0000       0.224685         6.1140 
 128   0.0000       0.226859         6.1731 
 129   0.0000       0.235511         6.4086 
 130   0.0000       0.252086         6.8596 
 131   0.0000       0.252251         6.8641 
 132   0.0000       0.252349         6.8668 
 133   0.0000       0.254630         6.9288 
 134   0.0000       0.255863         6.9624 
 135   0.0000       0.261987         7.1290 
 136   0.0000       0.262342         7.1387 
 137   0.0000       0.270869         7.3707 
 138   0.0000       0.273339         7.4379 
 139   0.0000       0.277247         7.5443 
 140   0.0000       0.284951         7.7539 
 141   0.0000       0.285685         7.7739 
 142   0.0000       0.297858         8.1051 
 143   0.0000       0.298432         8.1208 
 144   0.0000       0.298817         8.1312 
 145   0.0000       0.302794         8.2394 
 146   0.0000       0.302946         8.2436 
 147   0.0000       0.303162         8.2495 
 148   0.0000       0.316073         8.6008 
 149   0.0000       0.317463         8.6386 
 150   0.0000       0.320922         8.7327 
 151   0.0000       0.321419         8.7463 
 152   0.0000       0.323092         8.7918 
 153   0.0000       0.326120         8.8742 
 154   0.0000       0.326309         8.8793 
 155   0.0000       0.332332         9.0432 
 156   0.0000       0.349751         9.5172 
 157   0.0000       0.354126         9.6363 
 158   0.0000       0.354646         9.6504 
 159   0.0000       0.357846         9.7375 
 160   0.0000       0.358962         9.7678 
 161   0.0000       0.367345         9.9960 
 162   0.0000       0.368677        10.0322 
 163   0.0000       0.369185        10.0460 
 164   0.0000       0.370498        10.0818 
 165   0.0000       0.371281        10.1031 
 166   0.0000       0.372953        10.1486 
 167   0.0000       0.381586        10.3835 
 168   0.0000       0.384188        10.4543 
 169   0.0000       0.386482        10.5167 
 170   0.0000       0.396078        10.7778 
 171   0.0000       0.407767        11.0959 
 172   0.0000       0.425657        11.5827 
 173   0.0000       0.425986        11.5917 
 174   0.0000       0.432551        11.7703 
 175   0.0000       0.436198        11.8695 
 176   0.0000       0.449017        12.2184 
 177   0.0000       0.449209        12.2236 
 178   0.0000       0.454382        12.3644 
 179   0.0000       0.455820        12.4035 
 180   0.0000       0.457340        12.4449 
 181   0.0000       0.460947        12.5430 
 182   0.0000       0.461331        12.5535 
 183   0.0000       0.470760        12.8100 
 184   0.0000       0.470994        12.8164 
 185   0.0000       0.489026        13.3071 
 186   0.0000       0.491449        13.3730 
 187   0.0000       0.492470        13.4008 
 188   0.0000       0.494199        13.4478 
 189   0.0000       0.494625        13.4594 
 190   0.0000       0.495301        13.4778 
 191   0.0000       0.504634        13.7318 
 192   0.0000       0.504744        13.7348 
 193   0.0000       0.505701        13.7608 
 194   0.0000       0.514300        13.9948 
 195   0.0000       0.516776        14.0622 
 196   0.0000       0.522116        14.2075 
 197   0.0000       0.522129        14.2079 
 198   0.0000       0.531251        14.4561 
 199   0.0000       0.532465        14.4891 
 200   0.0000       0.540271        14.7015 
 201   0.0000       0.540312        14.7026 
 202   0.0000       0.557759        15.1774 
 203   0.0000       0.572020        15.5655 
 204   0.0000       0.575226        15.6527 
 205   0.0000       0.583265        15.8714 
 206   0.0000       0.583604        15.8807 
 207   0.0000       0.583938        15.8898 
 208   0.0000       0.584759        15.9121 
 209   0.0000       0.591074        16.0839 
 210   0.0000       0.591495        16.0954 
 211   0.0000       0.597742        16.2654 
 212   0.0000       0.597992        16.2722 
 213   0.0000       0.606315        16.4987 
 214   0.0000       0.612735        16.6734 
 215   0.0000       0.614294        16.7158 
 216   0.0000       0.617507        16.8032 
 217   0.0000       0.620168        16.8756 
 218   0.0000       0.623022        16.9533 
 219   0.0000       0.624163        16.9843 
 220   0.0000       0.627073        17.0635 
 221   0.0000       0.627323        17.0703 
 222   0.0000       0.636624        17.3234 
 223   0.0000       0.637592        17.3498 
 224   0.0000       0.643504        17.5106 
 225   0.0000       0.665835        18.1183 
 226   0.0000       0.666404        18.1338 
 227   0.0000       0.670116        18.2348 
 228   0.0000       0.671706        18.2781 
 229   0.0000       0.677927        18.4473 
 230   0.0000       0.680939        18.5293 
 231   0.0000       0.683833        18.6081 
 232   0.0000       0.684853        18.6358 
 233   0.0000       0.702067        19.1042 
 234   0.0000       0.702342        19.1117 
 235   0.0000       0.705722        19.2037 
 236   0.0000       0.707087        19.2408 
 237   0.0000       0.707862        19.2619 
 238   0.0000       0.709063        19.2946 
 239   0.0000       0.713360        19.4115 
 240   0.0000       0.715295        19.4642 
 241   0.0000       0.722772        19.6676 
 242   0.0000       0.723209        19.6795 
 243   0.0000       0.732729        19.9386 
 244   0.0000       0.733335        19.9551 
 245   0.0000       0.738899        20.1065 
 246   0.0000       0.739058        20.1108 
 247   0.0000       0.744361        20.2551 
 248   0.0000       0.745169        20.2771 
 249   0.0000       0.758631        20.6434 
 250   0.0000       0.770786        20.9742 
 251   0.0000       0.772616        21.0239 
 252   0.0000       0.774874        21.0854 
 253   0.0000       0.778702        21.1896 
 254   0.0000       0.779890        21.2219 
 255   0.0000       0.792140        21.5552 
 256   0.0000       0.794651        21.6236 
 257   0.0000       0.800966        21.7954 
 258   0.0000       0.802790        21.8450 
 259   0.0000       0.804533        21.8925 
 260   0.0000       0.805008        21.9054 
 261   0.0000       0.805289        21.9130 
 262   0.0000       0.807797        21.9813 
 263   0.0000       0.820842        22.3362 
 264   0.0000       0.821640        22.3580 
 265   0.0000       0.831273        22.6201 
 266   0.0000       0.832896        22.6642 
 267   0.0000       0.842302        22.9202 
 268   0.0000       0.844856        22.9897 
 269   0.0000       0.850759        23.1503 
 270   0.0000       0.862850        23.4793 
 271   0.0000       0.872095        23.7309 
 272   0.0000       0.873669        23.7738 
 273   0.0000       0.880685        23.9647 
 274   0.0000       0.886833        24.1319 
 275   0.0000       0.889072        24.1929 
 276   0.0000       0.901864        24.5410 
 277   0.0000       0.912089        24.8192 
 278   0.0000       0.914237        24.8776 
 279   0.0000       0.914362        24.8810 
 280   0.0000       0.925167        25.1751 
 281   0.0000       0.927036        25.2259 
 282   0.0000       0.927241        25.2315 
 283   0.0000       0.956739        26.0342 
 284   0.0000       0.963066        26.2064 
 285   0.0000       0.964362        26.2416 
 286   0.0000       0.970085        26.3974 
 287   0.0000       0.971401        26.4332 
 288   0.0000       0.974918        26.5289 
 289   0.0000       0.978196        26.6181 
 290   0.0000       0.996080        27.1047 
 291   0.0000       0.996899        27.1270 
 292   0.0000       1.012805        27.5598 
 293   0.0000       1.013218        27.5711 
 294   0.0000       1.013893        27.5894 
 295   0.0000       1.016035        27.6477 
 296   0.0000       1.040986        28.3267 
 297   0.0000       1.041658        28.3450 
 298   0.0000       1.051666        28.6173 
 299   0.0000       1.062382        28.9089 
 300   0.0000       1.062842        28.9214 
 301   0.0000       1.079119        29.3643 
 302   0.0000       1.082766        29.4636 
 303   0.0000       1.093127        29.7455 
 304   0.0000       1.096152        29.8278 
 305   0.0000       1.096927        29.8489 
 306   0.0000       1.116947        30.3937 
 307   0.0000       1.163975        31.6734 
 308   0.0000       1.164016        31.6745 
 309   0.0000       1.166674        31.7468 
 310   0.0000       1.166975        31.7550 
 311   0.0000       1.167742        31.7759 
 312   0.0000       1.171429        31.8762 
 313   0.0000       1.171943        31.8902 
 314   0.0000       1.173971        31.9454 
 315   0.0000       1.210377        32.9360 
 316   0.0000       1.230424        33.4815 
 317   0.0000       1.233399        33.5625 
 318   0.0000       1.235709        33.6254 
 319   0.0000       1.243127        33.8272 
 320   0.0000       1.252148        34.0727 
 321   0.0000       1.252388        34.0792 
 322   0.0000       1.264095        34.3978 
 323   0.0000       1.283548        34.9271 
 324   0.0000       1.289133        35.0791 
 325   0.0000       1.289874        35.0992 
 326   0.0000       1.290571        35.1182 
 327   0.0000       1.292838        35.1799 
 328   0.0000       1.293939        35.2099 
 329   0.0000       1.298168        35.3249 
 330   0.0000       1.299199        35.3530 
 331   0.0000       1.310149        35.6510 
 332   0.0000       1.317541        35.8521 
 333   0.0000       1.319493        35.9052 
 334   0.0000       1.319502        35.9055 
 335   0.0000       1.325282        36.0628 
 336   0.0000       1.325448        36.0673 
 337   0.0000       1.341803        36.5123 
 338   0.0000       1.342984        36.5444 
 339   0.0000       1.362446        37.0740 
 340   0.0000       1.381201        37.5844 
 341   0.0000       1.384385        37.6710 
 342   0.0000       1.390792        37.8454 
 343   0.0000       1.392825        37.9007 
 344   0.0000       1.401975        38.1497 
 345   0.0000       1.402606        38.1669 
 346   0.0000       1.409033        38.3417 
 347   0.0000       1.411298        38.4034 
 348   0.0000       1.415851        38.5273 
 349   0.0000       1.420528        38.6545 
 350   0.0000       1.420785        38.6615 
 351   0.0000       1.440600        39.2007 
 352   0.0000       1.449011        39.4296 
 353   0.0000       1.459445        39.7135 
 354   0.0000       1.459912        39.7262 
 355   0.0000       1.460795        39.7502 
 356   0.0000       1.461681        39.7743 
 357   0.0000       1.462844        39.8060 
 358   0.0000       1.465335        39.8738 
 359   0.0000       1.466171        39.8966 
 360   0.0000       1.469511        39.9874 
 361   0.0000       1.489449        40.5300 
 362   0.0000       1.501277        40.8518 
 363   0.0000       1.502719        40.8911 
 364   0.0000       1.505746        40.9734 
 365   0.0000       1.508489        41.0481 
 366   0.0000       1.512205        41.1492 
 367   0.0000       1.517749        41.3001 
 368   0.0000       1.539906        41.9030 
 369   0.0000       1.540858        41.9289 
 370   0.0000       1.541968        41.9591 
 371   0.0000       1.552235        42.2385 
 372   0.0000       1.553975        42.2858 
 373   0.0000       1.559033        42.4234 
 374   0.0000       1.561686        42.4956 
 375   0.0000       1.562222        42.5102 
 376   0.0000       1.574873        42.8545 
 377   0.0000       1.575317        42.8666 
 378   0.0000       1.577467        42.9251 
 379   0.0000       1.578002        42.9396 
 380   0.0000       1.582659        43.0663 
 381   0.0000       1.595845        43.4252 
 382   0.0000       1.597301        43.4648 
 383   0.0000       1.600191        43.5434 
 384   0.0000       1.602076        43.5947 
 385   0.0000       1.607783        43.7500 
 386   0.0000       1.608640        43.7733 
 387   0.0000       1.611545        43.8524 
 388   0.0000       1.633890        44.4604 
 389   0.0000       1.639530        44.6139 
 390   0.0000       1.649011        44.8719 
 391   0.0000       1.668656        45.4064 
 392   0.0000       1.669212        45.4216 
 393   0.0000       1.671480        45.4833 
 394   0.0000       1.671724        45.4899 
 395   0.0000       1.673077        45.5267 
 396   0.0000       1.699083        46.2344 
 397   0.0000       1.711963        46.5849 
 398   0.0000       1.713147        46.6171 
 399   0.0000       1.733452        47.1696 
 400   0.0000       1.733518        47.1714 
 401   0.0000       1.759519        47.8789 
 402   0.0000       1.769527        48.1513 
 403   0.0000       1.770154        48.1683 
 404   0.0000       1.774391        48.2836 
 405   0.0000       1.774432        48.2848 
 406   0.0000       1.775228        48.3064 
 407   0.0000       1.776177        48.3322 
 408   0.0000       1.779939        48.4346 
 409   0.0000       1.792438        48.7747 
 410   0.0000       1.794957        48.8433 
 411   0.0000       1.815964        49.4149 
 412   0.0000       1.819528        49.5119 
 413   0.0000       1.820441        49.5367 
 414   0.0000       1.839673        50.0600 
 415   0.0000       1.844408        50.1889 
 416   0.0000       1.853990        50.4496 
 417   0.0000       1.862269        50.6749 
 418   0.0000       1.863228        50.7010 
 419   0.0000       1.874081        50.9963 
 420   0.0000       1.897431        51.6317 
 421   0.0000       1.898075        51.6493 
 422   0.0000       1.906929        51.8902 
 423   0.0000       1.918882        52.2154 
 424   0.0000       1.923082        52.3297 
 425   0.0000       1.924530        52.3691 
 426   0.0000       1.947059        52.9822 
 427   0.0000       1.947268        52.9879 
 428   0.0000       1.970059        53.6080 
 429   0.0000       1.984464        54.0000 
 430   0.0000       1.985750        54.0350 
 431   0.0000       1.986503        54.0555 
 432   0.0000       1.988337        54.1054 
 433   0.0000       1.995863        54.3102 
 434   0.0000       1.999223        54.4016 
 435   0.0000       2.001449        54.4622 
 436   0.0000       2.025553        55.1181 
 437   0.0000       2.026512        55.1442 
 438   0.0000       2.031126        55.2698 
 439   0.0000       2.034973        55.3744 
 440   0.0000       2.049923        55.7812 
 441   0.0000       2.050330        55.7923 
 442   0.0000       2.064862        56.1878 
 443   0.0000       2.098098        57.0921 
 444   0.0000       2.103217        57.2315 
 445   0.0000       2.117818        57.6288 
 446   0.0000       2.119804        57.6828 
 447   0.0000       2.120402        57.6991 
 448   0.0000       2.149123        58.4806 
 449   0.0000       2.153154        58.5903 
 450   0.0000       2.155082        58.6428 
 451   0.0000       2.168505        59.0080 
 452   0.0000       2.199194        59.8431 
 453   0.0000       2.216287        60.3082 
 454   0.0000       2.225511        60.5592 
 455   0.0000       2.227260        60.6068 
 456   0.0000       2.242937        61.0334 
 457   0.0000       2.244534        61.0769 
 458   0.0000       2.261030        61.5258 
 459   0.0000       2.266727        61.6808 
 460   0.0000       2.275196        61.9112 
 461   0.0000       2.278862        62.0110 
 462   0.0000       2.284787        62.1722 
 463   0.0000       2.288108        62.2626 
 464   0.0000       2.306053        62.7509 
 465   0.0000       2.308272        62.8113 
 466   0.0000       2.328311        63.3566 
 467   0.0000       2.334639        63.5288 
 468   0.0000       2.336226        63.5719 
 469   0.0000       2.350316        63.9553 
 470   0.0000       2.354566        64.0710 
 471   0.0000       2.357118        64.1404 
 472   0.0000       2.360407        64.2299 
 473   0.0000       2.360955        64.2448 
 474   0.0000       2.378487        64.7219 
 475   0.0000       2.379205        64.7415 
 476   0.0000       2.379877        64.7597 
 477   0.0000       2.407203        65.5033 
 478   0.0000       2.410086        65.5818 
 479   0.0000       2.425092        65.9901 
 480   0.0000       2.426455        66.0272 
 481   0.0000       2.427782        66.0633 
 482   0.0000       2.438637        66.3587 
 483   0.0000       2.439237        66.3750 
 484   0.0000       2.441306        66.4313 
 485   0.0000       2.442330        66.4592 
 486   0.0000       2.454638        66.7941 
 487   0.0000       2.457236        66.8648 
 488   0.0000       2.477877        67.4265 
 489   0.0000       2.481841        67.5343 
 490   0.0000       2.489141        67.7330 
 491   0.0000       2.506072        68.1937 
 492   0.0000       2.531995        68.8991 
 493   0.0000       2.533486        68.9396 
 494   0.0000       2.535660        68.9988 
 495   0.0000       2.540310        69.1253 
 496   0.0000       2.540453        69.1293 
 497   0.0000       2.548869        69.3582 
 498   0.0000       2.551466        69.4289 
 499   0.0000       2.555036        69.5261 
 500   0.0000       2.555925        69.5503 
 501   0.0000       2.589000        70.4503 
 502   0.0000       2.591301        70.5129 
 503   0.0000       2.602499        70.8176 
 504   0.0000       2.621393        71.3317 
 505   0.0000       2.622993        71.3753 
 506   0.0000       2.626229        71.4633 
 507   0.0000       2.639520        71.8250 
 508   0.0000       2.640913        71.8629 
 509   0.0000       2.644071        71.9488 
 510   0.0000       2.667166        72.5773 
 511   0.0000       2.684424        73.0469 
 512   0.0000       2.684638        73.0527 
 513   0.0000       2.687060        73.1186 
 514   0.0000       2.688357        73.1539 
 515   0.0000       2.696227        73.3681 
 516   0.0000       2.697311        73.3976 
 517   0.0000       2.697706        73.4083 
 518   0.0000       2.697739        73.4092 
 519   0.0000       2.718705        73.9797 
 520   0.0000       2.721563        74.0575 
 521   0.0000       2.725891        74.1753 
 522   0.0000       2.726886        74.2023 
 523   0.0000       2.742881        74.6376 
 524   0.0000       2.767401        75.3048 
 525   0.0000       2.770145        75.3795 
 526   0.0000       2.772054        75.4314 
 527   0.0000       2.781379        75.6852 
 528   0.0000       2.783044        75.7305 
 529   0.0000       2.787975        75.8647 
 530   0.0000       2.789195        75.8978 
 531   0.0000       2.826713        76.9188 
 532   0.0000       2.828074        76.9558 
 533   0.0000       2.839884        77.2772 
 534   0.0000       2.849909        77.5500 
 535   0.0000       2.850952        77.5783 
 536   0.0000       2.852791        77.6284 
 537   0.0000       2.862193        77.8842 
 538   0.0000       2.866226        77.9940 
 539   0.0000       2.866397        77.9986 
 540   0.0000       2.884311        78.4861 
 541   0.0000       2.888360        78.5963 
 542   0.0000       2.889948        78.6395 
 543   0.0000       2.892391        78.7060 
 544   0.0000       2.896402        78.8151 
 545   0.0000       2.898288        78.8664 
 546   0.0000       2.903901        79.0192 
 547   0.0000       2.905324        79.0579 
 548   0.0000       2.940202        80.0070 
 549   0.0000       2.940837        80.0243 
 550   0.0000       2.941305        80.0370 
 551   0.0000       2.949470        80.2592 
 552   0.0000       2.976189        80.9862 
 553   0.0000       2.982681        81.1629 
 554   0.0000       2.990209        81.3677 
 555   0.0000       2.992399        81.4273 
 556   0.0000       3.006044        81.7986 
 557   0.0000       3.006179        81.8023 
 558   0.0000       3.007883        81.8487 
 559   0.0000       3.008109        81.8548 
 560   0.0000       3.009970        81.9054 
 561   0.0000       3.010393        81.9169 
 562   0.0000       3.024024        82.2879 
 563   0.0000       3.025056        82.3160 
 564   0.0000       3.040576        82.7383 
 565   0.0000       3.040843        82.7455 
 566   0.0000       3.046973        82.9123 
 567   0.0000       3.048350        82.9498 
 568   0.0000       3.058995        83.2395 
 569   0.0000       3.059844        83.2626 
 570   0.0000       3.065967        83.4292 
 571   0.0000       3.066285        83.4379 
 572   0.0000       3.076705        83.7214 
 573   0.0000       3.078171        83.7613 
 574   0.0000       3.089112        84.0590 
 575   0.0000       3.094152        84.1962 
 576   0.0000       3.095839        84.2421 
 577   0.0000       3.096681        84.2650 
 578   0.0000       3.111747        84.6749 
 579   0.0000       3.113101        84.7118 
 580   0.0000       3.116854        84.8139 
 581   0.0000       3.117843        84.8408 
 582   0.0000       3.128308        85.1256 
 583   0.0000       3.128541        85.1319 
 584   0.0000       3.130575        85.1873 
 585   0.0000       3.148329        85.6704 
 586   0.0000       3.152833        85.7929 
 587   0.0000       3.155974        85.8784 
 588   0.0000       3.159454        85.9731 
 589   0.0000       3.169733        86.2528 
 590   0.0000       3.170671        86.2784 
 591   0.0000       3.174623        86.3859 
 592   0.0000       3.187180        86.7276 
 593   0.0000       3.187984        86.7495 
 594   0.0000       3.190494        86.8177 
 595   0.0000       3.196285        86.9753 
 596   0.0000       3.198846        87.0450 
 597   0.0000       3.200547        87.0913 
 598   0.0000       3.203068        87.1599 
 599   0.0000       3.204761        87.2060 
 600   0.0000       3.223609        87.7188 
 601   0.0000       3.224536        87.7441 
 602   0.0000       3.252045        88.4926 
 603   0.0000       3.266837        88.8952 
 604   0.0000       3.268572        88.9424 
 605   0.0000       3.270112        88.9843 
 606   0.0000       3.272056        89.0372 
 607   0.0000       3.272341        89.0449 
 608   0.0000       3.279445        89.2382 
 609   0.0000       3.282507        89.3216 
 610   0.0000       3.287814        89.4660 
 611   0.0000       3.292956        89.6059 
 612   0.0000       3.296244        89.6954 
 613   0.0000       3.310735        90.0897 
 614   0.0000       3.320594        90.3580 
 615   0.0000       3.321834        90.3917 
 616   0.0000       3.322204        90.4018 
 617   0.0000       3.322512        90.4102 
 618   0.0000       3.326474        90.5180 
 619   0.0000       3.329231        90.5930 
 620   0.0000       3.330776        90.6350 
 621   0.0000       3.339743        90.8790 
 622   0.0000       3.341118        90.9165 
 623   0.0000       3.346620        91.0662 
 624   0.0000       3.349462        91.1435 
 625   0.0000       3.361836        91.4802 
 626   0.0000       3.375514        91.8524 
 627   0.0000       3.376446        91.8778 
 628   0.0000       3.392277        92.3086 
 629   0.0000       3.415545        92.9417 
 630   0.0000       3.425421        93.2104 
 631   0.0000       3.428814        93.3028 
 632   0.0000       3.430894        93.3594 
 633   0.0000       3.435632        93.4883 
 634   0.0000       3.437922        93.5506 
 635   0.0000       3.440386        93.6177 
 636   0.0000       3.448832        93.8475 
 637   0.0000       3.450836        93.9020 
 638   0.0000       3.470777        94.4447 
 639   0.0000       3.472922        94.5030 
 640   0.0000       3.480048        94.6969 
 641   0.0000       3.480445        94.7077 
 642   0.0000       3.497185        95.1632 
 643   0.0000       3.505678        95.3944 
 644   0.0000       3.506810        95.4252 
 645   0.0000       3.515753        95.6685 
 646   0.0000       3.531896        96.1078 
 647   0.0000       3.534553        96.1801 
 648   0.0000       3.536567        96.2349 
 649   0.0000       3.539009        96.3013 
 650   0.0000       3.554861        96.7327 
 651   0.0000       3.556270        96.7710 
 652   0.0000       3.565623        97.0255 
 653   0.0000       3.572741        97.2192 
 654   0.0000       3.573082        97.2285 
 655   0.0000       3.603893        98.0669 
 656   0.0000       3.608720        98.1983 
 657   0.0000       3.626599        98.6848 
 658   0.0000       3.641341        99.0859 
 659   0.0000       3.645457        99.1979 
 660   0.0000       3.647793        99.2615 
 661   0.0000       3.649352        99.3039 
 662   0.0000       3.677974       100.0828 
 663   0.0000       3.680105       100.1408 
 664   0.0000       3.720050       101.2277 
 665   0.0000       3.734064       101.6090 
 666   0.0000       3.744996       101.9065 
 667   0.0000       3.747020       101.9616 
 668   0.0000       3.749454       102.0278 
 669   0.0000       3.751502       102.0836 
 670   0.0000       3.808465       103.6336 
 671   0.0000       3.816933       103.8640 
 672   0.0000       3.822488       104.0152 
 673   0.0000       3.843552       104.5884 
 674   0.0000       3.844314       104.6091 
 675   0.0000       3.862136       105.0941 
 676   0.0000       3.866028       105.2000 
 677   0.0000       3.894391       105.9718 
 678   0.0000       3.905340       106.2697 
 679   0.0000       3.906680       106.3062 
 680   0.0000       3.917195       106.5923 
 681   0.0000       3.929716       106.9330 
 682   0.0000       3.945849       107.3720 
 683   0.0000       3.946968       107.4025 
 684   0.0000       3.949573       107.4733 
 685   0.0000       3.957100       107.6782 
 686   0.0000       3.961917       107.8093 
 687   0.0000       3.962166       107.8160 
 688   0.0000       3.982605       108.3722 
 689   0.0000       3.988560       108.5342 
 690   0.0000       4.020563       109.4051 
 691   0.0000       4.021370       109.4270 
 692   0.0000       4.024913       109.5234 
 693   0.0000       4.025188       109.5309 
 694   0.0000       4.025446       109.5380 
 695   0.0000       4.026218       109.5590 
 696   0.0000       4.026476       109.5660 
 697   0.0000       4.028006       109.6076 
 698   0.0000       4.030147       109.6659 
 699   0.0000       4.030973       109.6883 
 700   0.0000       4.032024       109.7169 
 701   0.0000       4.036692       109.8440 
[...]
      dyz     :     0.075488
      dx2y2   :     0.212156
      dxy     :     0.209859
      f0      :     0.005370  f :     0.077963
      f+1     :     0.005402
      f-1     :     0.005991
      f+2     :     0.007116
      f-2     :     0.008818
      f+3     :     0.013110
      f-3     :     0.032156
 11 C s       :     2.808860  s :     2.808860
      pz      :     0.856049  p :     2.851925
      px      :     0.906223
      py      :     1.089653
      dz2     :     0.040341  d :     0.390723
      dxz     :     0.024750
      dyz     :     0.093749
      dx2y2   :     0.112910
      dxy     :     0.118973
      f0      :     0.006903  f :     0.062816
      f+1     :     0.002972
      f-1     :     0.007798
      f+2     :     0.003728
      f-2     :     0.007720
      f+3     :     0.016633
      f-3     :     0.017062
 12 N s       :     3.300718  s :     3.300718
      pz      :     0.987633  p :     3.470663
      px      :     1.097794
      py      :     1.385237
      dz2     :     0.011457  d :     0.110222
      dxz     :     0.006893
      dyz     :     0.025239
      dx2y2   :     0.033063
      dxy     :     0.033570
      f0      :     0.001782  f :     0.016906
      f+1     :     0.000821
      f-1     :     0.002207
      f+2     :     0.000975
      f-2     :     0.002005
      f+3     :     0.004539
      f-3     :     0.004576
 13 N s       :     3.011239  s :     3.011239
      pz      :     0.943061  p :     3.475659
      px      :     1.412826
      py      :     1.119773
      dz2     :     0.018293  d :     0.218838
      dxz     :     0.011905
      dyz     :     0.048999
      dx2y2   :     0.063545
      dxy     :     0.076095
      f0      :     0.001321  f :     0.019386
      f+1     :     0.000711
      f-1     :     0.002134
      f+2     :     0.000483
      f-2     :     0.003815
      f+3     :     0.004026
      f-3     :     0.006895
 14 C s       :     2.691774  s :     2.691774
      pz      :     0.812915  p :     2.748072
      px      :     1.006191
      py      :     0.928966
      dz2     :     0.041339  d :     0.591520
      dxz     :     0.068034
      dyz     :     0.079059
      dx2y2   :     0.188620
      dxy     :     0.214467
      f0      :     0.005348  f :     0.077147
      f+1     :     0.005067
      f-1     :     0.005860
      f+2     :     0.007809
      f-2     :     0.008052
      f+3     :     0.013344
      f-3     :     0.031668
 15 C s       :     2.691884  s :     2.691884
      pz      :     0.812698  p :     2.748097
      px      :     0.938222
      py      :     0.997177
      dz2     :     0.041338  d :     0.591493
      dxz     :     0.082692
      dyz     :     0.064405
      dx2y2   :     0.169809
      dxy     :     0.233249
      f0      :     0.005347  f :     0.077159
      f+1     :     0.006473
      f-1     :     0.004448
      f+2     :     0.009934
      f-2     :     0.005927
      f+3     :     0.012810
      f-3     :     0.032220
 16 N s       :     3.010983  s :     3.010983
      pz      :     0.943282  p :     3.475476
      px      :     1.179706
      py      :     1.352488
      dz2     :     0.018302  d :     0.218893
      dxz     :     0.040658
      dyz     :     0.020251
      dx2y2   :     0.072709
      dxy     :     0.066972
      f0      :     0.001320  f :     0.019403
      f+1     :     0.001806
      f-1     :     0.001040
      f+2     :     0.002671
      f-2     :     0.001629
      f+3     :     0.004078
      f-3     :     0.006860
 17 C s       :     2.698886  s :     2.698886
      pz      :     0.823711  p :     2.765849
      px      :     0.949229
      py      :     0.992909
      dz2     :     0.041379  d :     0.610694
      dxz     :     0.065340
      dyz     :     0.081713
      dx2y2   :     0.252728
      dxy     :     0.169534
      f0      :     0.005366  f :     0.077988
      f+1     :     0.005198
      f-1     :     0.006202
      f+2     :     0.005745
      f-2     :     0.010170
      f+3     :     0.013670
      f-3     :     0.031636
 18 C s       :     2.808940  s :     2.808940
      pz      :     0.855869  p :     2.852159
      px      :     1.155328
      py      :     0.840962
      dz2     :     0.040344  d :     0.390810
      dxz     :     0.117975
      dyz     :     0.000497
      dx2y2   :     0.118134
      dxy     :     0.113859
      f0      :     0.006897  f :     0.062852
      f+1     :     0.009618
      f-1     :     0.001161
      f+2     :     0.011303
      f-2     :     0.000151
      f+3     :     0.016626
      f-3     :     0.017096
 19 N s       :     3.300504  s :     3.300504
      pz      :     0.987660  p :     3.470655
      px      :     1.489927
      py      :     0.993068
      dz2     :     0.011465  d :     0.110214
      dxz     :     0.032049
      dyz     :     0.000068
      dx2y2   :     0.034487
      dxy     :     0.032145
      f0      :     0.001779  f :     0.016916
      f+1     :     0.002729
      f-1     :     0.000307
      f+2     :     0.002953
      f-2     :     0.000025
      f+3     :     0.004558
      f-3     :     0.004565
 20 C s       :     2.699029  s :     2.699029
      pz      :     0.823749  p :     2.766257
      px      :     0.958978
      py      :     0.983530
      dz2     :     0.041360  d :     0.610578
      dxz     :     0.085422
      dyz     :     0.061616
      dx2y2   :     0.173853
      dxy     :     0.248327
      f0      :     0.005367  f :     0.077959
      f+1     :     0.006628
      f-1     :     0.004758
      f+2     :     0.010430
      f-2     :     0.005496
      f+3     :     0.013121
      f-3     :     0.032160
 21 C s       :     2.809007  s :     2.809007
      pz      :     0.855703  p :     2.852079
      px      :     0.938375
      py      :     1.058001
      dz2     :     0.040338  d :     0.390733
      dxz     :     0.036340
      dyz     :     0.082111
      dx2y2   :     0.115496
      dxy     :     0.116447
      f0      :     0.006906  f :     0.062824
      f+1     :     0.003674
      f-1     :     0.007102
      f+2     :     0.001867
      f-2     :     0.009577
      f+3     :     0.016635
      f-3     :     0.017063
 22 N s       :     3.300564  s :     3.300564
      pz      :     0.987834  p :     3.470423
      px      :     1.144570
      py      :     1.338020
      dz2     :     0.011469  d :     0.110228
      dxz     :     0.009747
      dyz     :     0.022342
      dx2y2   :     0.032453
      dxy     :     0.034217
      f0      :     0.001780  f :     0.016917
      f+1     :     0.001040
      f-1     :     0.001996
      f+2     :     0.000457
      f-2     :     0.002516
      f+3     :     0.004548
      f-3     :     0.004581
 23 N s       :     3.011189  s :     3.011189
      pz      :     0.943399  p :     3.475645
      px      :     1.183417
      py      :     1.348829
      dz2     :     0.018288  d :     0.218753
      dxz     :     0.041849
      dyz     :     0.019042
      dx2y2   :     0.071362
      dxy     :     0.068212
      f0      :     0.001320  f :     0.019390
      f+1     :     0.001860
      f-1     :     0.000984
      f+2     :     0.002754
      f-2     :     0.001544
      f+3     :     0.004026
      f-3     :     0.006902
 24 C s       :     2.691863  s :     2.691863
      pz      :     0.812775  p :     2.747975
      px      :     0.953867
      py      :     0.981332
      dz2     :     0.041325  d :     0.591485
      dxz     :     0.069938
      dyz     :     0.077122
      dx2y2   :     0.237745
      dxy     :     0.165355
      f0      :     0.005345  f :     0.077121
      f+1     :     0.004790
      f-1     :     0.006141
      f+2     :     0.006244
      f-2     :     0.009599
      f+3     :     0.013344
      f-3     :     0.031658
 25 C s       :     2.691835  s :     2.691835
      pz      :     0.812881  p :     2.748055
      px      :     0.960555
      py      :     0.974619
      dz2     :     0.041326  d :     0.591315
      dxz     :     0.068485
      dyz     :     0.078578
      dx2y2   :     0.233197
      dxy     :     0.169730
      f0      :     0.005344  f :     0.077110
      f+1     :     0.004644
      f-1     :     0.006290
      f+2     :     0.006744
      f-2     :     0.009096
      f+3     :     0.012808
      f-3     :     0.032184
 26 N s       :     3.011254  s :     3.011254
      pz      :     0.943140  p :     3.475562
      px      :     1.206477
      py      :     1.325944
      dz2     :     0.018293  d :     0.218822
      dxz     :     0.038962
      dyz     :     0.021920
      dx2y2   :     0.073562
      dxy     :     0.066085
      f0      :     0.001320  f :     0.019400
      f+1     :     0.001756
      f-1     :     0.001092
      f+2     :     0.003275
      f-2     :     0.001024
      f+3     :     0.004086
      f-3     :     0.006847
 27 C s       :     2.698954  s :     2.698954
      pz      :     0.823852  p :     2.766408
      px      :     0.964231
      py      :     0.978325
      dz2     :     0.041355  d :     0.610519
      dxz     :     0.086033
      dyz     :     0.061068
      dx2y2   :     0.183343
      dxy     :     0.238719
      f0      :     0.005367  f :     0.077947
      f+1     :     0.006651
      f-1     :     0.004736
      f+2     :     0.010111
      f-2     :     0.005820
      f+3     :     0.013642
      f-3     :     0.031621
 28 C s       :     2.808873  s :     2.808873
      pz      :     0.855930  p :     2.851875
      px      :     0.911315
      py      :     1.084630
      dz2     :     0.040335  d :     0.390823
      dxz     :     0.026570
      dyz     :     0.091921
      dx2y2   :     0.116905
      dxy     :     0.115091
      f0      :     0.006904  f :     0.062811
      f+1     :     0.002967
      f-1     :     0.007802
      f+2     :     0.003697
      f-2     :     0.007742
      f+3     :     0.016604
      f-3     :     0.017094
 29 N s       :     3.300654  s :     3.300654
      pz      :     0.987626  p :     3.470680
      px      :     1.102186
      py      :     1.380868
      dz2     :     0.011457  d :     0.110228
      dxz     :     0.007035
      dyz     :     0.025089
      dx2y2   :     0.032761
      dxy     :     0.033886
      f0      :     0.001782  f :     0.016906
      f+1     :     0.000835
      f-1     :     0.002194
      f+2     :     0.000940
      f-2     :     0.002038
      f+3     :     0.004543
      f-3     :     0.004574


                      *****************************
                      * MAYER POPULATION ANALYSIS *
                      *****************************

  NA   - Mulliken gross atomic population
  ZA   - Total nuclear charge
  QA   - Mulliken gross atomic charge
  VA   - Mayer's total valence
  BVA  - Mayer's bonded valence
  FA   - Mayer's free valence

  ATOM       NA         ZA         QA         VA         BVA        FA
  0 N      7.0049     7.0000    -0.0049     3.1008     3.1008    -0.0000
  1 C      6.2630     6.0000    -0.2630     4.0975     4.0975    -0.0000
  2 C      5.6604     6.0000     0.3396     3.9480     3.9480    -0.0000
  3 N      7.2536     7.0000    -0.2536     3.0521     3.0521    -0.0000
  4 C      5.8183     6.0000     0.1817     3.8349     3.8349    -0.0000
  5 C      5.8145     6.0000     0.1855     3.8374     3.8374    -0.0000
  6 N      7.2574     7.0000    -0.2574     3.0544     3.0544    -0.0000
  7 C      5.6612     6.0000     0.3388     3.9480     3.9480    -0.0000
  8 C      6.2585     6.0000    -0.2585     4.1002     4.1002    -0.0000
  9 N      7.0067     7.0000    -0.0067     3.0997     3.0997    -0.0000
 10 C      5.6691     6.0000     0.3309     3.9497     3.9497    -0.0000
 11 C      6.2499     6.0000    -0.2499     4.0987     4.0987    -0.0000
 12 N      7.0085     7.0000    -0.0085     3.0992     3.0992    -0.0000
 13 N      7.2574     7.0000    -0.2574     3.0538     3.0538    -0.0000
 14 C      5.8111     6.0000     0.1889     3.8311     3.8311    -0.0000
 15 C      5.8248     6.0000     0.1752     3.8391     3.8391    -0.0000
 16 N      7.2514     7.0000    -0.2514     3.0553     3.0553    -0.0000
 17 C      5.6588     6.0000     0.3412     3.9485     3.9485    -0.0000
 18 C      6.2648     6.0000    -0.2648     4.0973     4.0973    -0.0000
 19 N      7.0047     7.0000    -0.0047     3.1006     3.1006    -0.0000
 20 C      5.6741     6.0000     0.3259     3.9597     3.9597    -0.0000
 21 C      6.2548     6.0000    -0.2548     4.0993     4.0993    -0.0000
 22 N      7.0064     7.0000    -0.0064     3.0989     3.0989    -0.0000
 23 N      7.2518     7.0000    -0.2518     3.0566     3.0566    -0.0000
 24 C      5.8107     6.0000     0.1893     3.8258     3.8258    -0.0000
 25 C      5.8177     6.0000     0.1823     3.8310     3.8310    -0.0000
 26 N      7.2542     7.0000    -0.2542     3.0538     3.0538    -0.0000
 27 C      5.6755     6.0000     0.3245     3.9551     3.9551    -0.0000
 28 C      6.2480     6.0000    -0.2480     4.0995     4.0995    -0.0000
 29 N      7.0079     7.0000    -0.0079     3.0993     3.0993    -0.0000

  Mayer bond orders larger than 0.100000
B(  0-N ,  1-C ) :   2.9845 B(  1-C ,  2-C ) :   1.0067 B(  2-C ,  3-N ) :   1.4818 
B(  2-C , 27-C ) :   1.2963 B(  3-N ,  4-C ) :   1.4810 B(  3-N ,  5-C ) :  -0.1189 
B(  4-C ,  5-C ) :   1.0296 B(  4-C ,  6-N ) :  -0.1174 B(  4-C , 25-C ) :   1.3312 
B(  5-C ,  6-N ) :   1.4818 B(  5-C , 14-C ) :   1.3298 B(  6-N ,  7-C ) :   1.4833 
B(  7-C ,  8-C ) :   1.0069 B(  7-C , 10-C ) :   1.2962 B(  8-C ,  9-N ) :   2.9847 
B( 10-C , 11-C ) :   1.0069 B( 10-C , 13-N ) :   1.4843 B( 11-C , 12-N ) :   2.9849 
B( 13-N , 14-C ) :   1.4793 B( 13-N , 15-C ) :  -0.1160 B( 14-C , 15-C ) :   1.0310 
B( 14-C , 16-N ) :  -0.1156 B( 15-C , 16-N ) :   1.4796 B( 15-C , 24-C ) :   1.3299 
B( 16-N , 17-C ) :   1.4838 B( 17-C , 18-C ) :   1.0067 B( 17-C , 20-C ) :   1.2956 
B( 18-C , 19-N ) :   2.9842 B( 20-C , 21-C ) :   1.0108 B( 20-C , 23-N ) :   1.4875 
B( 21-C , 22-N ) :   2.9832 B( 23-N , 24-C ) :   1.4813 B( 23-N , 25-C ) :  -0.1213 
B( 24-C , 25-C ) :   1.0287 B( 24-C , 26-N ) :  -0.1198 B( 25-C , 26-N ) :   1.4786 
B( 26-N , 27-C ) :   1.4863 B( 27-C , 28-C ) :   1.0090 B( 28-C , 29-N ) :   2.9846 


-------
TIMINGS
-------

Total SCF time: 0 days 0 hours 38 min 15 sec 

Total time                  ....    2295.453 sec
Sum of individual times     ....    2292.802 sec  ( 99.9%)

Fock matrix formation       ....    2284.163 sec  ( 99.5%)
  XC integration            ....      10.932 sec  (  0.5% of F)
    Basis function eval.    ....       2.024 sec  ( 18.5% of XC)
    Density eval.           ....       3.329 sec  ( 30.5% of XC)
    XC-Functional eval.     ....       0.552 sec  (  5.0% of XC)
    XC-Potential eval.      ....       4.584 sec  ( 41.9% of XC)
Diagonalization             ....       0.750 sec  (  0.0%)
Density matrix formation    ....       0.098 sec  (  0.0%)
Population analysis         ....       0.465 sec  (  0.0%)
Initial guess               ....       0.809 sec  (  0.0%)
Orbital Transformation      ....       0.000 sec  (  0.0%)
Orbital Orthonormalization  ....       0.740 sec  (  0.0%)
DIIS solution               ....       0.210 sec  (  0.0%)
SOSCF solution              ....       2.587 sec  (  0.1%)
Grid generation             ....       3.720 sec  (  0.2%)


-------------------------------------------------------------------------------
                          DFT DISPERSION CORRECTION                            
                                                                               
                              DFTD3 V3.1  Rev 1                                
                              USING zero damping                               
-------------------------------------------------------------------------------
The omegaB97X-D3 functional is recognized. Fit by Chai et al.
Active option DFTDOPT                   ...         3   

molecular C6(AA) [au] = 21270.156157 


            DFT-D V3
 parameters
 s6 scaling factor         :     1.0000 
 rs6 scaling factor        :     1.2810 
 s8 scaling factor         :     1.0000 
 rs8 scaling factor        :     1.0940 
 Damping factor alpha6     :    14.0000 
 Damping factor alpha8     :    16.0000 
 ad hoc parameters k1-k3   :    16.0000     1.3333    -4.0000 

 Edisp/kcal,au: -9.395373235386  -0.014972478698 
 E6   /kcal   :  -4.340209705 
 E8   /kcal   :  -5.055163531 
 % E8         :  53.804818651 

-------------------------   ----------------
Dispersion correction           -0.014972479
-------------------------   ----------------


-------------------------   --------------------
FINAL SINGLE POINT ENERGY     -1342.863393968520
-------------------------   --------------------

                                *** OPTIMIZATION RUN DONE ***

                            ***************************************
                            *     ORCA property calculations      *
                            ***************************************

                                    ---------------------
                                    Active property flags
                                    ---------------------
   (+) Dipole Moment


------------------------------------------------------------------------------
                       ORCA ELECTRIC PROPERTIES CALCULATION
------------------------------------------------------------------------------

Dipole Moment Calculation                       ... on
Quadrupole Moment Calculation                   ... off
Polarizability Calculation                      ... off
GBWName                                         ... HAT-CN6.gbw
Electron density file                           ... HAT-CN6.scfp
The origin for moment calculation is the CENTER OF MASS  = (13.758754, -2.381278 -0.149752)

-------------
DIPOLE MOMENT
-------------
                                X             Y             Z
Electronic contribution:      0.00257       0.00834       0.00758
Nuclear contribution   :      0.00000      -0.00003      -0.00004
                        -----------------------------------------
Total Dipole Moment    :      0.00257       0.00832       0.00754
                        -----------------------------------------
Magnitude (a.u.)       :      0.01152
Magnitude (Debye)      :      0.02928



--------------------
Rotational spectrum 
--------------------
 
Rotational constants in cm-1:     0.005124     0.005110     0.002559 
Rotational constants in MHz :   153.626367   153.181874    76.704628 

 Dipole components along the rotational axes: 
x,y,z [a.u.] :     0.003293    -0.008043     0.007560 
x,y,z [Debye]:     0.008369    -0.020444     0.019217 

 
--------------------------------------------------------------------------
[[56600,1],3]: A high-performance Open MPI point-to-point messaging module
was unable to find any relevant network interfaces:

Module: OpenFabrics (openib)
  Host: compute-0-6

Another transport will be used instead, although this may result in
lower performance.

NOTE: You can disable this warning by setting the MCA parameter
btl_base_warn_component_unused to 0.
--------------------------------------------------------------------------
[compute-0-6.local:25975] 3 more processes have sent help message help-mpi-btl-base.txt / btl:no-nics
[compute-0-6.local:25975] Set MCA parameter "orte_base_help_aggregate" to 0 to see all help / error messages

Timings for individual modules:

Sum of individual times         ...    51457.486 sec (= 857.625 min)
GTO integral calculation        ...       20.613 sec (=   0.344 min)   0.0 %
SCF iterations                  ...    31648.549 sec (= 527.476 min)  61.5 %
SCF Gradient evaluation         ...    19785.709 sec (= 329.762 min)  38.5 %
Geometry relaxation             ...        2.615 sec (=   0.044 min)   0.0 %
                             ****ORCA TERMINATED NORMALLY****
TOTAL RUN TIME: 0 days 14 hours 17 minutes 41 seconds 27 msec
