Warning: no access to tty (Bad file descriptor).
Thus no job control in this shell.

                                 *****************
                                 * O   R   C   A *
                                 *****************

           --- An Ab Initio, DFT and Semiempirical electronic structure package ---

                  #######################################################
                  #                        -***-                        #
                  #          Department of theory and spectroscopy      #
                  #               Directorship: Frank Neese             #
                  #        Max Planck Institute fuer Kohlenforschung    #
                  #                Kaiser Wilhelm Platz 1               #
                  #                 D-45470 Muelheim/Ruhr               #
                  #                      Germany                        #
                  #                                                     #
                  #                  All rights reserved                #
                  #                        -***-                        #
                  #######################################################


                         Program Version 4.2.1 -  RELEASE  -


 With contributions from (in alphabetic order):
   Daniel Aravena         : Magnetic Suceptibility
   Michael Atanasov       : Ab Initio Ligand Field Theory (pilot matlab implementation)
   Alexander A. Auer      : GIAO ZORA, VPT2
   Ute Becker             : Parallelization
   Giovanni Bistoni       : ED, misc. LED, open-shell LED, HFLD
   Martin Brehm           : Molecular dynamics
   Dmytro Bykov           : SCF Hessian
   Vijay G. Chilkuri      : MRCI spin determinant printing, contributions to CSF-ICE
   Dipayan Datta          : RHF DLPNO-CCSD density
   Achintya Kumar Dutta   : EOM-CC, STEOM-CC
   Dmitry Ganyushin       : Spin-Orbit,Spin-Spin,Magnetic field MRCI
   Miquel Garcia          : C-PCM Hessian, Gaussian charge scheme
   Yang Guo               : DLPNO-NEVPT2, CIM, IAO-localization
   Andreas Hansen         : Spin unrestricted coupled pair/coupled cluster methods
   Benjamin Helmich-Paris : CASSCF linear response (MC-RPA)
   Lee Huntington         : MR-EOM, pCC
   Robert Izsak           : Overlap fitted RIJCOSX, COSX-SCS-MP3, EOM
   Christian Kollmar      : KDIIS, OOCD, Brueckner-CCSD(T), CCSD density
   Simone Kossmann        : Meta GGA functionals, TD-DFT gradient, OOMP2, MP2 Hessian
   Martin Krupicka        : AUTO-CI
   Lucas Lang             : DCDCAS
   Dagmar Lenk            : GEPOL surface, SMD
   Dimitrios Liakos       : Extrapolation schemes; Compound Job, initial MDCI parallelization
   Dimitrios Manganas     : Further ROCIS development; embedding schemes
   Dimitrios Pantazis     : SARC Basis sets
   Taras Petrenko         : DFT Hessian,TD-DFT gradient, ASA, ECA, R-Raman, ABS, FL, XAS/XES, NRVS
   Peter Pinski           : DLPNO-MP2, DLPNO-MP2 Gradient
   Christoph Reimann      : Effective Core Potentials
   Marius Retegan         : Local ZFS, SOC
   Christoph Riplinger    : Optimizer, TS searches, QM/MM, DLPNO-CCSD(T), (RO)-DLPNO pert. Triples
   Tobias Risthaus        : Range-separated hybrids, TD-DFT gradient, RPA, STAB
   Michael Roemelt        : Original ROCIS implementation
   Masaaki Saitow         : Open-shell DLPNO-CCSD energy and density
   Barbara Sandhoefer     : DKH picture change effects
   Avijit Sen             : IP-ROCIS
   Kantharuban Sivalingam : CASSCF convergence, NEVPT2, FIC-MRCI
   Bernardo de Souza      : ESD, SOC TD-DFT
   Georgi Stoychev        : AutoAux, RI-MP2 NMR
   Willem Van den Heuvel  : Paramagnetic NMR
   Boris Wezisla          : Elementary symmetry handling
   Frank Wennmohs         : Technical directorship


 We gratefully acknowledge several colleagues who have allowed us to
 interface, adapt or use parts of their codes:
   Stefan Grimme, W. Hujo, H. Kruse,             : VdW corrections, initial TS optimization,
                  C. Bannwarth                     DFT functionals, gCP, sTDA/sTD-DF
   Ed Valeev, F. Pavosevic, A. Kumar             : LibInt (2-el integral package), F12 methods
   Garnet Chan, S. Sharma, J. Yang, R. Olivares  : DMRG
   Ulf Ekstrom                                   : XCFun DFT Library
   Mihaly Kallay                                 : mrcc  (arbitrary order and MRCC methods)
   Andreas Klamt, Michael Diedenhofen            : otool_cosmo (COSMO solvation model)
   Jiri Pittner, Ondrej Demel                    : Mk-CCSD
   Frank Weinhold                                : gennbo (NPA and NBO analysis)
   Christopher J. Cramer and Donald G. Truhlar   : smd solvation model
   Lars Goerigk                                  : TD-DFT with DH, B97 family of functionals
   V. Asgeirsson, H. Jonsson                     : NEB implementation
   FAccTs GmbH                                   : IRC, NEB, NEB-TS, Multilevel, MM, QM/MM, CI optimization
   S Lehtola, MJT Oliveira, MAL Marques          : LibXC Library


 Your calculation uses the libint2 library for the computation of 2-el integrals
 For citations please refer to: http://libint.valeyev.net

 Your ORCA version has been built with support for libXC version: 4.2.3
 For citations please refer to: https://tddft.org/programs/libxc/

 This ORCA versions uses:
   CBLAS   interface :  Fast vector & matrix operations
   LAPACKE interface :  Fast linear algebra routines
   SCALAPACK package :  Parallel linear algebra routines



            !!!!!!!!!!!!!!!!!!!!!!!!!!!!!!!!!!!!!!!!!!!!!!!!!!!!!!!!
                                 INPUT ERROR
            UNRECOGNIZED OR DUPLICATED KEYWORD(S) IN SIMPLE INPUT LINE
                       DEF2-SVP/J  
            !!!!!!!!!!!!!!!!!!!!!!!!!!!!!!!!!!!!!!!!!!!!!!!!!!!!!!!!
[file orca_main/maininp4.cpp, line 9978]: 

[file orca_main/maininp4.cpp, line 9978]: 

Warning: no access to tty (Bad file descriptor).
Thus no job control in this shell.

                                 *****************
                                 * O   R   C   A *
                                 *****************

           --- An Ab Initio, DFT and Semiempirical electronic structure package ---

                  #######################################################
                  #                        -***-                        #
                  #          Department of theory and spectroscopy      #
                  #               Directorship: Frank Neese             #
                  #        Max Planck Institute fuer Kohlenforschung    #
                  #                Kaiser Wilhelm Platz 1               #
                  #                 D-45470 Muelheim/Ruhr               #
                  #                      Germany                        #
                  #                                                     #
                  #                  All rights reserved                #
                  #                        -***-                        #
                  #######################################################


                         Program Version 4.2.1 -  RELEASE  -


 With contributions from (in alphabetic order):
   Daniel Aravena         : Magnetic Suceptibility
   Michael Atanasov       : Ab Initio Ligand Field Theory (pilot matlab implementation)
   Alexander A. Auer      : GIAO ZORA, VPT2
   Ute Becker             : Parallelization
   Giovanni Bistoni       : ED, misc. LED, open-shell LED, HFLD
   Martin Brehm           : Molecular dynamics
   Dmytro Bykov           : SCF Hessian
   Vijay G. Chilkuri      : MRCI spin determinant printing, contributions to CSF-ICE
   Dipayan Datta          : RHF DLPNO-CCSD density
   Achintya Kumar Dutta   : EOM-CC, STEOM-CC
   Dmitry Ganyushin       : Spin-Orbit,Spin-Spin,Magnetic field MRCI
   Miquel Garcia          : C-PCM Hessian, Gaussian charge scheme
   Yang Guo               : DLPNO-NEVPT2, CIM, IAO-localization
   Andreas Hansen         : Spin unrestricted coupled pair/coupled cluster methods
   Benjamin Helmich-Paris : CASSCF linear response (MC-RPA)
   Lee Huntington         : MR-EOM, pCC
   Robert Izsak           : Overlap fitted RIJCOSX, COSX-SCS-MP3, EOM
   Christian Kollmar      : KDIIS, OOCD, Brueckner-CCSD(T), CCSD density
   Simone Kossmann        : Meta GGA functionals, TD-DFT gradient, OOMP2, MP2 Hessian
   Martin Krupicka        : AUTO-CI
   Lucas Lang             : DCDCAS
   Dagmar Lenk            : GEPOL surface, SMD
   Dimitrios Liakos       : Extrapolation schemes; Compound Job, initial MDCI parallelization
   Dimitrios Manganas     : Further ROCIS development; embedding schemes
   Dimitrios Pantazis     : SARC Basis sets
   Taras Petrenko         : DFT Hessian,TD-DFT gradient, ASA, ECA, R-Raman, ABS, FL, XAS/XES, NRVS
   Peter Pinski           : DLPNO-MP2, DLPNO-MP2 Gradient
   Christoph Reimann      : Effective Core Potentials
   Marius Retegan         : Local ZFS, SOC
   Christoph Riplinger    : Optimizer, TS searches, QM/MM, DLPNO-CCSD(T), (RO)-DLPNO pert. Triples
   Tobias Risthaus        : Range-separated hybrids, TD-DFT gradient, RPA, STAB
   Michael Roemelt        : Original ROCIS implementation
   Masaaki Saitow         : Open-shell DLPNO-CCSD energy and density
   Barbara Sandhoefer     : DKH picture change effects
   Avijit Sen             : IP-ROCIS
   Kantharuban Sivalingam : CASSCF convergence, NEVPT2, FIC-MRCI
   Bernardo de Souza      : ESD, SOC TD-DFT
   Georgi Stoychev        : AutoAux, RI-MP2 NMR
   Willem Van den Heuvel  : Paramagnetic NMR
   Boris Wezisla          : Elementary symmetry handling
   Frank Wennmohs         : Technical directorship


 We gratefully acknowledge several colleagues who have allowed us to
 interface, adapt or use parts of their codes:
   Stefan Grimme, W. Hujo, H. Kruse,             : VdW corrections, initial TS optimization,
                  C. Bannwarth                     DFT functionals, gCP, sTDA/sTD-DF
   Ed Valeev, F. Pavosevic, A. Kumar             : LibInt (2-el integral package), F12 methods
   Garnet Chan, S. Sharma, J. Yang, R. Olivares  : DMRG
   Ulf Ekstrom                                   : XCFun DFT Library
   Mihaly Kallay                                 : mrcc  (arbitrary order and MRCC methods)
   Andreas Klamt, Michael Diedenhofen            : otool_cosmo (COSMO solvation model)
   Jiri Pittner, Ondrej Demel                    : Mk-CCSD
   Frank Weinhold                                : gennbo (NPA and NBO analysis)
   Christopher J. Cramer and Donald G. Truhlar   : smd solvation model
   Lars Goerigk                                  : TD-DFT with DH, B97 family of functionals
   V. Asgeirsson, H. Jonsson                     : NEB implementation
   FAccTs GmbH                                   : IRC, NEB, NEB-TS, Multilevel, MM, QM/MM, CI optimization
   S Lehtola, MJT Oliveira, MAL Marques          : LibXC Library


 Your calculation uses the libint2 library for the computation of 2-el integrals
 For citations please refer to: http://libint.valeyev.net

 Your ORCA version has been built with support for libXC version: 4.2.3
 For citations please refer to: https://tddft.org/programs/libxc/

 This ORCA versions uses:
   CBLAS   interface :  Fast vector & matrix operations
   LAPACKE interface :  Fast linear algebra routines
   SCALAPACK package :  Parallel linear algebra routines


Your calculation utilizes the atom-pairwise dispersion correction
with the zero-damping scheme (D30)
Cite in your paper:
S.Grimme, J.Antony, S.Ehrlich and H.Krieg, J.Chem.Phys., 132, (2010), 154104 
   

XCFun DFT library Copyright 2009-2010 Ulf Ekstrom and contributors.
See http://admol.org/xcfun for more information. This is free soft-
ware; see the source code for copying conditions. There is ABSOLUTELY
NO WARRANTY; not even for MERCHANTABILITY or FITNESS FOR A PARTICULAR
PURPOSE. For details see the documentation. Scientific users of this 
library should cite U. Ekstrom, L. Visscher, R. Bast, A. J. Thorvald-
sen and K. Ruud; J.Chem.Theor.Comp. 2010, DOI: 10.1021/ct100117s
XCFun Version 0.99 
----- Orbital basis set information -----
Your calculation utilizes the basis: def2-TZVP
   F. Weigend and R. Ahlrichs, Phys. Chem. Chem. Phys. 7, 3297 (2005).

----- AuxJ basis set information -----
Your calculation utilizes the auxiliary basis: def2/J
   F. Weigend, Phys. Chem. Chem. Phys. 8, 1057 (2006).

================================================================================
                                        WARNINGS
                       Please study these warnings very carefully!
================================================================================


WARNING: Geometry Optimization
  ===> : Switching off AutoStart
         For restart on a previous wavefunction, please use MOREAD

INFO   : the flag for use of LIBINT has been found!

================================================================================
                                       INPUT FILE
================================================================================
NAME = F4-TCNQ.inp
|  1> # avogadro generated ORCA input file 
|  2> # Basic Mode
|  3> # 
|  4> ! wB97X-D3 OPT def2-TZVP def2/J CPCM
|  5> %cpcm
|  6>   epsilon 3
|  7> end
|  8> %pal
|  9>  nprocs 4
| 10> end 
| 11> 
| 12> * xyz 0 1
| 13>    C       -9.85459        4.82825       -0.54038
| 14>    C       -9.36947        3.49263       -0.41017
| 15>    N      -10.89088        5.40376       -0.60360
| 16>    N       -9.79604        2.38942       -0.30974
| 17>    H       -8.65805        4.50458       -0.49954
| 18>    H       -7.82875        4.80373       -0.52064
| 19>    H       -7.52552        5.73248       -0.60567
| 20>    H       -6.99926        4.28360       -0.46442
| 21>    F       -8.38102        6.47333       -0.68293
| 22>    F       -7.18071        3.16869       -0.36078
| 23>    H       -6.72705        6.02052       -0.62598
| 24>    H       -6.20079        4.57164       -0.48473
| 25>    H       -5.89756        5.50039       -0.56976
| 26>    F       -6.54559        7.13543       -0.72962
| 27>    F       -5.34529        3.83080       -0.40747
| 28>    H       -5.06826        5.79955       -0.59086
| 29>    C       -4.35684        6.81149       -0.68023
| 30>    C       -3.87172        5.47588       -0.55002
| 31>    N       -3.93029        7.91471       -0.78066
| 32>    N       -2.83541        4.90038       -0.48680
| 33> *
| 34> 
| 35> 
| 36>                          ****END OF INPUT****
================================================================================

                       *****************************
                       * Geometry Optimization Run *
                       *****************************

Geometry optimization settings:
Update method            Update   .... BFGS
Choice of coordinates    CoordSys .... Z-matrix Internals
Initial Hessian          InHess   .... Almoef's Model

Convergence Tolerances:
Energy Change            TolE     ....  5.0000e-06 Eh
Max. Gradient            TolMAXG  ....  3.0000e-04 Eh/bohr
RMS Gradient             TolRMSG  ....  1.0000e-04 Eh/bohr
Max. Displacement        TolMAXD  ....  4.0000e-03 bohr
RMS Displacement         TolRMSD  ....  2.0000e-03 bohr
Strict Convergence                ....  False
------------------------------------------------------------------------------
                        ORCA OPTIMIZATION COORDINATE SETUP
------------------------------------------------------------------------------

The optimization will be done in new redundant internal coordinates
Making redundant internal coordinates   ...  (new redundants) done
Evaluating the initial hessian          ...  (Almloef) done
Evaluating the coordinates              ...  done
Calculating the B-matrix                .... done
Calculating the G-matrix                .... done
Diagonalizing the G-matrix              .... done
Small eigenvalue found = 1.505e-02
The first mode is                       ....   54
The number of degrees of freedom        ....   54

    -----------------------------------------------------------------
                    Redundant Internal Coordinates


    -----------------------------------------------------------------
         Definition                    Initial Value    Approx d2E/dq
    -----------------------------------------------------------------
      1. B(C   1,C   0)                  1.4269         0.545497   
      2. B(N   2,C   0)                  1.1871         1.179390   
      3. B(N   3,C   1)                  1.1871         1.179362   
      4. B(H   4,C   1)                  1.2402         0.207374   
      5. B(H   4,C   0)                  1.2402         0.207377   
      6. B(H   5,H   4)                  0.8819         0.148099   
      7. B(H   6,H   5)                  0.9807         0.103008   
      8. B(H   7,H   5)                  0.9807         0.103009   
      9. B(F   8,H   6)                  1.1343         0.254638   
     10. B(F   9,H   7)                  1.1343         0.254646   
     11. B(H  10,H   6)                  0.8491         0.167052   
     12. B(H  11,H   7)                  0.8491         0.167052   
     13. B(H  12,H  10)                  0.9807         0.103009   
     14. B(H  12,H  11)                  0.9807         0.103008   
     15. B(F  13,H  10)                  1.1343         0.254644   
     16. B(F  14,H  11)                  1.1343         0.254644   
     17. B(H  15,H  12)                  0.8819         0.148098   
     18. B(C  16,H  15)                  1.2402         0.207381   
     19. B(C  17,C  16)                  1.4269         0.545516   
     20. B(C  17,H  15)                  1.2402         0.207377   
     21. B(N  18,C  16)                  1.1871         1.179353   
     22. B(N  19,C  17)                  1.1871         1.179335   
     23. A(C   1,C   0,N   2)          139.0640         0.473537   
     24. A(N   2,C   0,H   4)          166.0551         0.356196   
     25. A(C   1,C   0,H   4)           54.8809         0.315269   
     26. A(N   3,C   1,H   4)          166.0563         0.356193   
     27. A(C   0,C   1,H   4)           54.8806         0.315268   
     28. A(C   0,C   1,N   3)          139.0631         0.473535   
     29. A(C   0,H   4,C   1)           70.2385         0.246223   
     30. A(C   0,H   4,H   5)          144.8814         0.205493   
     31. A(C   1,H   4,H   5)          144.8801         0.205493   
     32. A(H   4,H   5,H   7)          127.8884         0.168506   
     33. A(H   6,H   5,H   7)          104.2246         0.162233   
     34. A(H   4,H   5,H   6)          127.8870         0.168505   
     35. A(H   5,H   6,F   8)          113.0313         0.199212   
     36. A(H   5,H   6,H  10)          127.8877         0.170702   
     37. A(F   8,H   6,H  10)          119.0810         0.211957   
     38. A(H   5,H   7,H  11)          127.8877         0.170702   
     39. A(H   5,H   7,F   9)          113.0312         0.199213   
     40. A(F   9,H   7,H  11)          119.0811         0.211958   
     41. A(H  12,H  10,F  13)          113.0307         0.199213   
     42. A(H   6,H  10,H  12)          127.8877         0.170702   
     43. A(H   6,H  10,F  13)          119.0816         0.211958   
     44. A(H   7,H  11,H  12)          127.8877         0.170702   
     45. A(H  12,H  11,F  14)          113.0310         0.199212   
     46. A(H   7,H  11,F  14)          119.0813         0.211958   
     47. A(H  10,H  12,H  15)          127.8878         0.168505   
     48. A(H  10,H  12,H  11)          104.2246         0.162233   
     49. A(H  11,H  12,H  15)          127.8876         0.168505   
     50. A(H  12,H  15,C  17)          144.8808         0.205493   
     51. A(H  12,H  15,C  16)          144.8809         0.205493   
     52. A(C  16,H  15,C  17)           70.2382         0.246224   
     53. A(C  17,C  16,N  18)          139.0641         0.473537   
     54. A(H  15,C  16,N  18)          166.0549         0.356195   
     55. A(H  15,C  16,C  17)           54.8810         0.315272   
     56. A(C  16,C  17,N  19)          139.0633         0.473536   
     57. A(H  15,C  17,N  19)          166.0560         0.356193   
     58. A(H  15,C  17,C  16)           54.8807         0.315271   
     59. D(H   4,C   1,C   0,N   2)   -179.9996         0.020345   
     60. D(N   3,C   1,C   0,H   4)   -179.9998         0.020345   
     61. D(N   3,C   1,C   0,N   2)      0.0006         0.020345   
     62. D(H   5,H   4,C   0,C   1)    179.9992         0.033374   
     63. D(H   5,H   4,C   0,N   2)     -0.0020         0.033374   
     64. D(C   1,H   4,C   0,N   2)    179.9989         0.033374   
     65. D(H   5,H   4,C   1,C   0)   -179.9992         0.033372   
     66. D(H   5,H   4,C   1,N   3)      0.0002         0.033372   
     67. D(C   0,H   4,C   1,N   3)    179.9994         0.033372   
     68. D(H   6,H   5,H   4,C   1)    179.9998         0.641918   
     69. D(H   7,H   5,H   4,C   1)     -0.0011         0.641918   
     70. D(H   6,H   5,H   4,C   0)      0.0012         0.641918   
     71. D(H   7,H   5,H   4,C   0)   -179.9997         0.641918   
     72. D(F   8,H   6,H   5,H   7)   -179.9994         0.247402   
     73. D(F   8,H   6,H   5,H   4)     -0.0001         0.247402   
     74. D(H  10,H   6,H   5,H   7)      0.0001         0.247402   
     75. D(H  10,H   6,H   5,H   4)    179.9994         0.247402   
     76. D(H  11,H   7,H   5,H   6)     -0.0001         0.247408   
     77. D(H  11,H   7,H   5,H   4)   -179.9994         0.247408   
     78. D(F   9,H   7,H   5,H   6)   -179.9997         0.247408   
     79. D(F   9,H   7,H   5,H   4)      0.0010         0.247408   
     80. D(H  12,H  10,H   6,H   5)     -0.0002         0.890580   
     81. D(H  12,H  10,H   6,F   8)    179.9993         0.890580   
     82. D(F  13,H  10,H   6,H   5)   -179.9998         0.890580   
     83. D(F  13,H  10,H   6,F   8)     -0.0003         0.890580   
     84. D(H  12,H  11,H   7,H   5)      0.0002         0.890580   
     85. D(H  12,H  11,H   7,F   9)    179.9998         0.890580   
     86. D(F  14,H  11,H   7,H   5)   -179.9994         0.890580   
     87. D(F  14,H  11,H   7,F   9)      0.0002         0.890580   
     88. D(H  11,H  12,H  10,H   6)      0.0001         0.247408   
     89. D(H  11,H  12,H  10,F  13)    179.9997         0.247408   
     90. D(H  10,H  12,H  11,H   7)     -0.0001         0.247402   
     91. D(H  10,H  12,H  11,F  14)    179.9994         0.247402   
     92. D(H  15,H  12,H  11,H   7)   -179.9995         0.247402   
     93. D(H  15,H  12,H  11,F  14)      0.0000         0.247402   
     94. D(H  15,H  12,H  10,H   6)    179.9995         0.247408   
     95. D(H  15,H  12,H  10,F  13)     -0.0009         0.247408   
     96. D(C  17,H  15,H  12,H  10)    179.9997         0.641897   
     97. D(C  17,H  15,H  12,H  11)     -0.0011         0.641897   
     98. D(C  16,H  15,H  12,H  10)      0.0008         0.641897   
     99. D(C  16,H  15,H  12,H  11)   -179.9999         0.641897   
    100. D(N  18,C  16,H  15,H  12)      0.0003         0.033375   
    101. D(N  18,C  16,H  15,C  17)   -179.9990         0.033375   
    102. D(C  17,C  16,H  15,H  12)    179.9993         0.033375   
    103. D(N  19,C  17,C  16,N  18)     -0.0008         0.020347   
    104. D(N  19,C  17,C  16,H  15)    179.9996         0.020347   
    105. D(H  15,C  17,C  16,N  18)    179.9996         0.020347   
    106. D(N  19,C  17,H  15,H  12)      0.0017         0.033374   
    107. D(N  19,C  17,H  15,C  16)   -179.9990         0.033374   
    108. D(C  16,C  17,H  15,H  12)   -179.9993         0.033374   
    -----------------------------------------------------------------

Number of atoms                         .... 20
Number of degrees of freedom            .... 108

         *************************************************************
         *                GEOMETRY OPTIMIZATION CYCLE   1            *
         *************************************************************
---------------------------------
CARTESIAN COORDINATES (ANGSTROEM)
---------------------------------
  C     -9.854590    4.828250   -0.540380
  C     -9.369470    3.492630   -0.410170
  N    -10.890880    5.403760   -0.603600
  N     -9.796040    2.389420   -0.309740
  H     -8.658050    4.504580   -0.499540
  H     -7.828750    4.803730   -0.520640
  H     -7.525520    5.732480   -0.605670
  H     -6.999260    4.283600   -0.464420
  F     -8.381020    6.473330   -0.682930
  F     -7.180710    3.168690   -0.360780
  H     -6.727050    6.020520   -0.625980
  H     -6.200790    4.571640   -0.484730
  H     -5.897560    5.500390   -0.569760
  F     -6.545590    7.135430   -0.729620
  F     -5.345290    3.830800   -0.407470
  H     -5.068260    5.799550   -0.590860
  C     -4.356840    6.811490   -0.680230
  C     -3.871720    5.475880   -0.550020
  N     -3.930290    7.914710   -0.780660
  N     -2.835410    4.900380   -0.486800

----------------------------
CARTESIAN COORDINATES (A.U.)
----------------------------
  NO LB      ZA    FRAG     MASS         X           Y           Z
   0 C     6.0000    0    12.011  -18.622476    9.124070   -1.021170
   1 C     6.0000    0    12.011  -17.705732    6.600114   -0.775109
   2 N     7.0000    0    14.007  -20.580781   10.211626   -1.140639
   3 N     7.0000    0    14.007  -18.511833    4.515349   -0.585324
   4 H     1.0000    0     1.008  -16.361343    8.512423   -0.943994
   5 H     1.0000    0     1.008  -14.794193    9.077734   -0.983867
   6 H     1.0000    0     1.008  -14.221172   10.832817   -1.144550
   7 H     1.0000    0     1.008  -13.226685    8.094831   -0.877627
   8 F     9.0000    0    18.998  -15.837833   12.232821   -1.290551
   9 F     9.0000    0    18.998  -13.569575    5.987956   -0.681775
  10 H     1.0000    0     1.008  -12.712282   11.377134   -1.182931
  11 H     1.0000    0     1.008  -11.717795    8.639148   -0.916007
  12 H     1.0000    0     1.008  -11.144773   10.394231   -1.076690
  13 F     9.0000    0    18.998  -12.369372   13.484009   -1.378782
  14 F     9.0000    0    18.998  -10.101134    7.239163   -0.770007
  15 H     1.0000    0     1.008   -9.577623   10.959561   -1.116564
  16 C     6.0000    0    12.011   -8.233234   12.871851   -1.285448
  17 C     6.0000    0    12.011   -7.316490   10.347914   -1.039387
  18 N     7.0000    0    14.007   -7.427172   14.956634   -1.475234
  19 N     7.0000    0    14.007   -5.358148    9.260376   -0.919919

--------------------------------
INTERNAL COORDINATES (ANGSTROEM)
--------------------------------
 C      0   0   0     0.000000000000     0.00000000     0.00000000
 C      1   0   0     1.426946685374     0.00000000     0.00000000
 N      1   2   0     1.187057493384   139.06404201     0.00000000
 N      2   1   3     1.187063795211   139.06313093     0.00000000
 H      1   2   3     1.240216975412    54.88088155   179.99958056
 H      5   1   2     0.881858504807   144.88142164   179.99915572
 H      6   5   1     0.980691131957   127.88703483     0.00000000
 H      6   5   1     0.980688312054   127.88838787   180.00032432
 F      7   6   5     1.134331556512   113.03133691     0.00000000
 F      8   6   5     1.134323437208   113.03120231     0.00000000
 H      7   6   5     0.849078252342   127.88770656   179.99943456
 H      8   6   5     0.849078252342   127.88771614   180.00056545
 H     11   7   6     0.980688312054   127.88771614     0.00000000
 F     11   7   6     1.134325036883   119.08158013   180.00024265
 F     12   8   6     1.134325025379   119.08133607   180.00064143
 H     13  11   7     0.881861897124   127.88777974   179.99951189
 C     16  13  11     1.240212875639   144.88094645     0.00000000
 C     16  13  11     1.240216975412   144.88081351   179.99971498
 N     17  16  13     1.187065902046   166.05491751     0.00000000
 N     18  16  13     1.187070105133   166.05596690     0.00000000

---------------------------
INTERNAL COORDINATES (A.U.)
---------------------------
 C      0   0   0     0.000000000000     0.00000000     0.00000000
 C      1   0   0     2.696538443064     0.00000000     0.00000000
 N      1   2   0     2.243213567716   139.06404201     0.00000000
 N      2   1   3     2.243225476441   139.06313093     0.00000000
 H      1   2   3     2.343670430169    54.88088155   179.99958056
 H      5   1   2     1.666471062954   144.88142164   179.99915572
 H      6   5   1     1.853237661365   127.88703483     0.00000000
 H      6   5   1     1.853232332520   127.88838787   180.00032432
 F      7   6   5     2.143575986873   113.03133691     0.00000000
 F      8   6   5     2.143560643612   113.03120231     0.00000000
 H      7   6   5     1.604525363195   127.88770656   179.99943456
 H      8   6   5     1.604525363195   127.88771614   180.00056545
 H     11   7   6     1.853232332520   127.88771614     0.00000000
 F     11   7   6     2.143563666559   119.08158013   180.00024265
 F     12   8   6     2.143563644819   119.08133607   180.00064143
 H     13  11   7     1.666477473506   127.88777974   179.99951189
 C     16  13  11     2.343662682720   144.88094645     0.00000000
 C     16  13  11     2.343670430169   144.88081351   179.99971498
 N     17  16  13     2.243229457783   166.05491751     0.00000000
 N     18  16  13     2.243237400466   166.05596690     0.00000000

---------------------
BASIS SET INFORMATION
---------------------
There are 4 groups of distinct atoms

 Group   1 Type C   : 11s6p2d1f contracted to 5s3p2d1f pattern {62111/411/11/1}
 Group   2 Type N   : 11s6p2d1f contracted to 5s3p2d1f pattern {62111/411/11/1}
 Group   3 Type H   : 5s1p contracted to 3s1p pattern {311/1}
 Group   4 Type F   : 11s6p2d1f contracted to 5s3p2d1f pattern {62111/411/11/1}

Atom   0C    basis set group =>   1
Atom   1C    basis set group =>   1
Atom   2N    basis set group =>   2
Atom   3N    basis set group =>   2
Atom   4H    basis set group =>   3
Atom   5H    basis set group =>   3
Atom   6H    basis set group =>   3
Atom   7H    basis set group =>   3
Atom   8F    basis set group =>   4
Atom   9F    basis set group =>   4
Atom  10H    basis set group =>   3
Atom  11H    basis set group =>   3
Atom  12H    basis set group =>   3
Atom  13F    basis set group =>   4
Atom  14F    basis set group =>   4
Atom  15H    basis set group =>   3
Atom  16C    basis set group =>   1
Atom  17C    basis set group =>   1
Atom  18N    basis set group =>   2
Atom  19N    basis set group =>   2
---------------------------------
AUXILIARY/J BASIS SET INFORMATION
---------------------------------
There are 4 groups of distinct atoms

 Group   1 Type C   : 12s5p4d2f1g contracted to 6s4p3d1f1g pattern {711111/2111/211/2/1}
 Group   2 Type N   : 12s5p4d2f1g contracted to 6s4p3d1f1g pattern {711111/2111/211/2/1}
 Group   3 Type H   : 5s2p1d contracted to 3s1p1d pattern {311/2/1}
 Group   4 Type F   : 12s5p4d2f1g contracted to 6s4p3d1f1g pattern {711111/2111/211/2/1}

Atom   0C    basis set group =>   1
Atom   1C    basis set group =>   1
Atom   2N    basis set group =>   2
Atom   3N    basis set group =>   2
Atom   4H    basis set group =>   3
Atom   5H    basis set group =>   3
Atom   6H    basis set group =>   3
Atom   7H    basis set group =>   3
Atom   8F    basis set group =>   4
Atom   9F    basis set group =>   4
Atom  10H    basis set group =>   3
Atom  11H    basis set group =>   3
Atom  12H    basis set group =>   3
Atom  13F    basis set group =>   4
Atom  14F    basis set group =>   4
Atom  15H    basis set group =>   3
Atom  16C    basis set group =>   1
Atom  17C    basis set group =>   1
Atom  18N    basis set group =>   2
Atom  19N    basis set group =>   2
--------------------------------------------------------------------------
[[11031,1],2]: A high-performance Open MPI point-to-point messaging module
was unable to find any relevant network interfaces:

Module: OpenFabrics (openib)
  Host: compute-0-12

Another transport will be used instead, although this may result in
lower performance.

NOTE: You can disable this warning by setting the MCA parameter
btl_base_warn_component_unused to 0.
--------------------------------------------------------------------------


           ************************************************************
           *        Program running with 4 parallel MPI-processes     *
           *              working on a common directory               *
           ************************************************************
------------------------------------------------------------------------------
                           ORCA GTO INTEGRAL CALCULATION
------------------------------------------------------------------------------

                         BASIS SET STATISTICS AND STARTUP INFO

 # of primitive gaussian shells          ...  288
 # of primitive gaussian functions       ...  616
 # of contracted shells                  ...  164
 # of contracted basis functions         ...  420
 Highest angular momentum                ...    3
 Maximum contraction depth               ...    6
 Integral package used                   ... LIBINT
 Integral threshhold            Thresh   ...  2.500e-11
 Primitive cut-off              TCut     ...  2.500e-12


------------------------------ INTEGRAL EVALUATION ----------------------------


 * One electron integrals 
 Pre-screening matrix                    ... done
 Shell pair data                         ... done (   0.004 sec)

[compute-0-12.local:28605] 3 more processes have sent help message help-mpi-btl-base.txt / btl:no-nics
[compute-0-12.local:28605] Set MCA parameter "orte_base_help_aggregate" to 0 to see all help / error messages
--------------------------------------------------------------------------
[[11109,1],2]: A high-performance Open MPI point-to-point messaging module
was unable to find any relevant network interfaces:

Module: OpenFabrics (openib)
  Host: compute-0-12

Another transport will be used instead, although this may result in
lower performance.

NOTE: You can disable this warning by setting the MCA parameter
btl_base_warn_component_unused to 0.
--------------------------------------------------------------------------


           ************************************************************
           *        Program running with 4 parallel MPI-processes     *
           *              working on a common directory               *
           ************************************************************
-------------------------------------------------------------------------------
                                 ORCA SCF
-------------------------------------------------------------------------------

------------
SCF SETTINGS
------------
Hamiltonian:
 Density Functional     Method          .... DFT(GTOs)
 Exchange Functional    Exchange        .... WB97X-D3
 Correlation Functional Correlation     .... WB97X-D3
 Gradients option       PostSCFGGA      .... off
 Hybrid DFT is turned on
   Fraction HF Exchange ScalHFX         ....  0.195728
   Scaling of DF-GGA-X  ScalDFX         ....  0.000000
   Scaling of DF-GGA-C  ScalDFC         ....  1.000000
   Scaling of DF-LDA-C  ScalLDAC        ....  1.000000
   Perturbative correction              ....  0.000000
   Density functional embedding theory  .... OFF
 Long-range corrected/Screened/Range-Separated Hybrid DFT is turned on
   Amount of maximum screened exact exchange              ....  0.804272
   Range separation parameter mu (erf(mu*r12)/r12)        ....  0.250000


General Settings:
 Integral files         IntName         .... F4-TCNQ
 Hartree-Fock type      HFTyp           .... RHF
 Total Charge           Charge          ....    0
 Multiplicity           Mult            ....    1
 Number of Electrons    NEL             ....   96
 Basis Dimension        Dim             ....  420
 Nuclear Repulsion      ENuc            ....    722.8492173345 Eh

Convergence Acceleration:
 DIIS                   CNVDIIS         .... on
   Start iteration      DIISMaxIt       ....    12
   Startup error        DIISStart       ....  0.200000
   # of expansion vecs  DIISMaxEq       ....     5
   Bias factor          DIISBfac        ....   1.050
   Max. coefficient     DIISMaxC        ....  10.000
 Newton-Raphson         CNVNR           .... off
 SOSCF                  CNVSOSCF        .... on
   Start iteration      SOSCFMaxIt      ....   150
   Startup grad/error   SOSCFStart      ....  0.003300
 Level Shifting         CNVShift        .... on
   Level shift para.    LevelShift      ....    0.2500
   Turn off err/grad.   ShiftErr        ....    0.0010
 Zerner damping         CNVZerner       .... off
 Static damping         CNVDamp         .... on
   Fraction old density DampFac         ....    0.7000
   Max. Damping (<1)    DampMax         ....    0.9800
   Min. Damping (>=0)   DampMin         ....    0.0000
   Turn off err/grad.   DampErr         ....    0.1000
 Fernandez-Rico         CNVRico         .... off

SCF Procedure:
 Maximum # iterations   MaxIter         ....   125
 SCF integral mode      SCFMode         .... Direct
   Integral package                     .... LIBINT
 Reset frequency        DirectResetFreq ....    20
 Integral Threshold     Thresh          ....  2.500e-11 Eh
 Primitive CutOff       TCut            ....  2.500e-12 Eh

Convergence Tolerance:
 Convergence Check Mode ConvCheckMode   .... Total+1el-Energy
 Convergence forced     ConvForced      .... 0
 Energy Change          TolE            ....  1.000e-08 Eh
 1-El. energy change                    ....  1.000e-05 Eh
 Orbital Gradient       TolG            ....  1.000e-05
 Orbital Rotation angle TolX            ....  1.000e-05
 DIIS Error             TolErr          ....  5.000e-07


Diagonalization of the overlap matrix:
Smallest eigenvalue                        ... 3.284e-05
Time for diagonalization                   ...    0.089 sec
Threshold for overlap eigenvalues          ... 1.000e-08
Number of eigenvalues below threshold      ... 0
Time for construction of square roots      ...    0.027 sec
Total time needed                          ...    0.117 sec

-------------------
DFT GRID GENERATION
-------------------

General Integration Accuracy     IntAcc      ...  4.340
Radial Grid Type                 RadialGrid  ... Gauss-Chebyshev
Angular Grid (max. acc.)         AngularGrid ... Lebedev-110
Angular grid pruning method      GridPruning ... 3 (G Style)
Weight generation scheme         WeightScheme... Becke
Basis function cutoff            BFCut       ...    1.0000e-11
Integration weight cutoff        WCut        ...    1.0000e-14
Grids for H and He will be reduced by one unit

# of grid points (after initial pruning)     ...  26744 (   0.0 sec)
# of grid points (after weights+screening)   ...  24710 (   0.1 sec)
nearest neighbour list constructed           ...    0.0 sec
Grid point re-assignment to atoms done       ...    0.0 sec
Grid point division into batches done        ...    0.0 sec
Reduced shell lists constructed in    0.2 sec

Total number of grid points                  ...    24710
Total number of batches                      ...      394
Average number of points per batch           ...       62
Average number of grid points per atom       ...     1236
Average number of shells per batch           ...    73.39 (44.75%)
Average number of basis functions per batch  ...   175.31 (41.74%)
Average number of large shells per batch     ...    51.39 (70.02%)
Average number of large basis fcns per batch ...   125.99 (71.87%)
Maximum spatial batch extension              ...  17.83, 20.22, 20.95 au
Average spatial batch extension              ...   0.92,  1.03,  1.29 au

Time for grid setup =    0.225 sec

------------------------------
INITIAL GUESS: MODEL POTENTIAL
------------------------------
Loading Hartree-Fock densities                     ... done
Calculating cut-offs                               ... done
Setting up the integral package                    ... done
Initializing the effective Hamiltonian             ... done
Starting the Coulomb interaction                   ... done (   0.2 sec)
Reading the grid                                   ... done
Mapping shells                                     ... done
Starting the XC term evaluation                    ... done (   0.3 sec)
  promolecular density results
     # of electrons  =     96.029039628
     EX              =    -88.886631493
     EC              =     -3.249609287
     EX+EC           =    -92.136240780
Transforming the Hamiltonian                       ... done (   0.0 sec)
Diagonalizing the Hamiltonian                      ... done (   0.1 sec)
Back transforming the eigenvectors                 ... done (   0.0 sec)
Now organizing SCF variables                       ... done
                      ------------------
                      INITIAL GUESS DONE (   0.9 sec)
                      ------------------

--------------------
CPCM SOLVATION MODEL
--------------------
CPCM parameters:
  Epsilon                                         ...       3.0000
  Refrac                                          ...       1.3300
  Rsolv                                           ...       1.3000
  Surface type                                    ...    GEPOL SES
  Epsilon function type                           ...         CPCM
Radii:
 Radius for C  used is    3.7795 Bohr (=   2.0000 Ang.)
 Radius for N  used is    3.4582 Bohr (=   1.8300 Ang.)
 Radius for H  used is    2.4566 Bohr (=   1.3000 Ang.)
 Radius for F  used is    3.2503 Bohr (=   1.7200 Ang.)
Calculating surface                               ...        done! (  0.1s)
GEPOL surface points                              ...          663
GEPOL Volume                                      ...    1338.7410
GEPOL Surface-area                                ...     761.0790
Calculating surface distance matrix               ...        done! (  0.0s)
Performing Cholesky decomposition & store         ...        done! (  0.0s)
Overall time for CPCM initialization              ...                 0.1s
--------------
SCF ITERATIONS
--------------
ITER       Energy         Delta-E        Max-DP      RMS-DP      [F,P]     Damp
               ***  Starting incremental Fock matrix formation  ***
[compute-0-12.local:28623] 3 more processes have sent help message help-mpi-btl-base.txt / btl:no-nics
[compute-0-12.local:28623] Set MCA parameter "orte_base_help_aggregate" to 0 to see all help / error messages
  0   -774.2436684276   0.000000000000 0.04683798  0.00095907  0.2360235 0.7000
  1   -774.4193003483  -0.175631920771 0.02931542  0.00062359  0.1028052 0.7000
                               ***Turning on DIIS***
  2   -774.4801344614  -0.060834113023 0.05303099  0.00099176  0.0340709 0.0000
  3   -774.5913032048  -0.111168743437 0.02510486  0.00043527  0.0506900 0.0000
  4   -774.6108121094  -0.019508904615 0.01036735  0.00015844  0.0109467 0.0000
  5   -774.6119646009  -0.001152491514 0.00483343  0.00009517  0.0027242 0.0000
                      *** Initiating the SOSCF procedure ***
                           *** Shutting down DIIS ***
                      *** Re-Reading the Fockian *** 
                      *** Removing any level shift *** 
ITER      Energy       Delta-E        Grad      Rot      Max-DP    RMS-DP
  6   -774.61222605  -0.0002614442  0.002349  0.002349  0.003609  0.000062
               *** Restarting incremental Fock matrix formation ***
  7   -774.61234172  -0.0001156742  0.001819  0.005843  0.003753  0.000061
  8   -774.61239743  -0.0000557150  0.000889  0.007069  0.004750  0.000077
  9   -774.61240625  -0.0000088190  0.000732  0.001555  0.000983  0.000021
 10   -774.61241887  -0.0000126198  0.000194  0.000718  0.000635  0.000009
 11   -774.61241900  -0.0000001236  0.000177  0.000354  0.000280  0.000005
 12   -774.61241993  -0.0000009344  0.000036  0.000094  0.000095  0.000001
 13   -774.61241996  -0.0000000267  0.000025  0.000091  0.000040  0.000001
 14   -774.61241997  -0.0000000078  0.000003  0.000015  0.000011  0.000000
                  ***Gradient check signals convergence***
              ***Rediagonalizing the Fockian in SOSCF/NRSCF***

               *****************************************************
               *                     SUCCESS                       *
               *           SCF CONVERGED AFTER  15 CYCLES          *
               *****************************************************

Setting up the final grid:

General Integration Accuracy     IntAcc      ...  4.670
Radial Grid Type                 RadialGrid  ... Gauss-Chebyshev
Angular Grid (max. acc.)         AngularGrid ... Lebedev-302
Angular grid pruning method      GridPruning ... 3 (G Style)
Weight generation scheme         WeightScheme... Becke
Basis function cutoff            BFCut       ...    1.0000e-11
Integration weight cutoff        WCut        ...    1.0000e-14
Grids for H and He will be reduced by one unit

# of grid points (after initial pruning)     ... 101936 (   0.0 sec)
# of grid points (after weights+screening)   ...  92432 (   0.2 sec)
nearest neighbour list constructed           ...    0.0 sec
Grid point re-assignment to atoms done       ...    0.0 sec
Grid point division into batches done        ...    0.5 sec
Reduced shell lists constructed in    0.9 sec

Total number of grid points                  ...    92432
Total number of batches                      ...     1452
Average number of points per batch           ...       63
Average number of grid points per atom       ...     4622
Average number of shells per batch           ...    66.01 (40.25%)
Average number of basis functions per batch  ...   156.56 (37.28%)
Average number of large shells per batch     ...    45.74 (69.29%)
Average number of large basis fcns per batch ...   111.56 (71.26%)
Maximum spatial batch extension              ...  20.37, 17.48, 16.68 au
Average spatial batch extension              ...   0.66,  0.70,  0.78 au

Final grid set up in    1.2 sec
Final integration                            ... done (   1.1 sec)
Change in XC energy                          ...     0.002374580
Integrated number of electrons               ...    96.000701179
Previous integrated no of electrons          ...    96.004194044

----------------
TOTAL SCF ENERGY
----------------

Total Energy       :         -774.61004538 Eh          -21078.21093 eV

Components:
Nuclear Repulsion  :          722.84921733 Eh           19669.72719 eV
Electronic Energy  :        -1497.45926272 Eh          -40747.93812 eV
One Electron Energy:        -2499.86284716 Eh          -68024.72638 eV
Two Electron Energy:         1002.40358444 Eh           27276.78826 eV
CPCM Dielectric    :           -0.02994608 Eh              -0.81487 eV

Virial components:
Potential Energy   :        -1548.61291385 Eh          -42139.89974 eV
Kinetic Energy     :          774.00286847 Eh           21061.68881 eV
Virial Ratio       :            2.00078446


DFT components:
N(Alpha)           :       48.000350589422 electrons
N(Beta)            :       48.000350589422 electrons
N(Total)           :       96.000701178844 electrons
E(XC)              :      -65.811849056147 Eh       
DFET-embed. en.    :        0.000000000000 Eh       
CPCM Solvation Model Properties:
Surface-charge          :           -0.02003393
Charge-correction       :            0.00048140 Eh               0.01310 eV
Free-energy (cav+disp)  :            0.00440241 Eh               0.11980 eV
Corrected G(solv)       :         -774.60516158 Eh          -21078.07804 eV

---------------
SCF CONVERGENCE
---------------

  Last Energy change         ...    3.4230e-09  Tolerance :   1.0000e-08
  Last MAX-Density change    ...    4.6911e-06  Tolerance :   1.0000e-07
  Last RMS-Density change    ...    6.0034e-08  Tolerance :   5.0000e-09
  Last Orbital Gradient      ...    4.6084e-07  Tolerance :   1.0000e-05
  Last Orbital Rotation      ...    1.8221e-06  Tolerance :   1.0000e-05

             **** THE GBW FILE WAS UPDATED (F4-TCNQ.gbw) ****
             **** DENSITY FILE WAS UPDATED (F4-TCNQ.scfp) ****
             **** ENERGY FILE WAS UPDATED (F4-TCNQ.en.tmp) ****
             **** THE GBW FILE WAS UPDATED (F4-TCNQ.gbw) ****
             **** DENSITY FILE WAS UPDATED (F4-TCNQ.scfp) ****
----------------
ORBITAL ENERGIES
----------------

  NO   OCC          E(Eh)            E(eV) 
   0   2.0000     -24.747797      -673.4218 
   1   2.0000     -24.747723      -673.4198 
   2   2.0000     -24.747554      -673.4152 
   3   2.0000     -24.747486      -673.4133 
   4   2.0000     -14.521760      -395.1572 
   5   2.0000     -14.521723      -395.1562 
   6   2.0000     -14.521650      -395.1542 
   7   2.0000     -14.521609      -395.1531 
   8   2.0000     -10.431317      -283.8506 
   9   2.0000     -10.431300      -283.8501 
  10   2.0000     -10.430874      -283.8385 
  11   2.0000     -10.430857      -283.8381 
  12   2.0000      -1.324755       -36.0484 
  13   2.0000      -1.311804       -35.6960 
  14   2.0000      -1.253060       -34.0975 
  15   2.0000      -1.245365       -33.8881 
  16   2.0000      -1.136399       -30.9230 
  17   2.0000      -1.134801       -30.8795 
  18   2.0000      -1.079245       -29.3677 
  19   2.0000      -1.078841       -29.3568 
  20   2.0000      -0.988650       -26.9025 
  21   2.0000      -0.981578       -26.7101 
  22   2.0000      -0.866035       -23.5660 
  23   2.0000      -0.708389       -19.2763 
  24   2.0000      -0.702307       -19.1107 
  25   2.0000      -0.669724       -18.2241 
  26   2.0000      -0.601371       -16.3641 
  27   2.0000      -0.591262       -16.0890 
  28   2.0000      -0.581541       -15.8245 
  29   2.0000      -0.580105       -15.7855 
  30   2.0000      -0.575939       -15.6721 
  31   2.0000      -0.553661       -15.0659 
  32   2.0000      -0.553338       -15.0571 
  33   2.0000      -0.549340       -14.9483 
  34   2.0000      -0.547270       -14.8920 
  35   2.0000      -0.527851       -14.3636 
  36   2.0000      -0.525183       -14.2910 
  37   2.0000      -0.520820       -14.1722 
  38   2.0000      -0.503497       -13.7008 
  39   2.0000      -0.492863       -13.4115 
  40   2.0000      -0.484602       -13.1867 
  41   2.0000      -0.474661       -12.9162 
  42   2.0000      -0.468999       -12.7621 
  43   2.0000      -0.448774       -12.2118 
  44   2.0000      -0.439677       -11.9642 
  45   2.0000      -0.418409       -11.3855 
  46   2.0000      -0.401241       -10.9183 
  47   2.0000      -0.390467       -10.6251 
  48   0.0000      -0.128729        -3.5029 
  49   0.0000      -0.049200        -1.3388 
  50   0.0000      -0.049032        -1.3342 
  51   0.0000      -0.048830        -1.3287 
  52   0.0000      -0.039282        -1.0689 
  53   0.0000      -0.033267        -0.9052 
  54   0.0000       0.040755         1.1090 
  55   0.0000       0.095279         2.5927 
  56   0.0000       0.142619         3.8809 
  57   0.0000       0.142939         3.8896 
  58   0.0000       0.143416         3.9025 
  59   0.0000       0.154281         4.1982 
  60   0.0000       0.225733         6.1425 
  61   0.0000       0.230528         6.2730 
  62   0.0000       0.252058         6.8588 
  63   0.0000       0.256519         6.9802 
  64   0.0000       0.262899         7.1538 
  65   0.0000       0.264666         7.2019 
  66   0.0000       0.309161         8.4127 
  67   0.0000       0.337814         9.1924 
  68   0.0000       0.343085         9.3358 
  69   0.0000       0.349258         9.5038 
  70   0.0000       0.350433         9.5358 
  71   0.0000       0.351927         9.5764 
  72   0.0000       0.361848         9.8464 
  73   0.0000       0.366970         9.9858 
  74   0.0000       0.390894        10.6368 
  75   0.0000       0.393114        10.6972 
  76   0.0000       0.400251        10.8914 
  77   0.0000       0.402676        10.9574 
  78   0.0000       0.425792        11.5864 
  79   0.0000       0.431101        11.7309 
  80   0.0000       0.443641        12.0721 
  81   0.0000       0.446936        12.1618 
  82   0.0000       0.461685        12.5631 
  83   0.0000       0.462543        12.5864 
  84   0.0000       0.470683        12.8079 
  85   0.0000       0.481348        13.0981 
  86   0.0000       0.524521        14.2729 
  87   0.0000       0.525141        14.2898 
  88   0.0000       0.528799        14.3894 
  89   0.0000       0.541861        14.7448 
  90   0.0000       0.552147        15.0247 
  91   0.0000       0.558654        15.2017 
  92   0.0000       0.564215        15.3531 
  93   0.0000       0.566584        15.4175 
  94   0.0000       0.591619        16.0988 
  95   0.0000       0.603936        16.4339 
  96   0.0000       0.627488        17.0748 
  97   0.0000       0.633706        17.2440 
  98   0.0000       0.634551        17.2670 
  99   0.0000       0.641523        17.4567 
 100   0.0000       0.654908        17.8209 
 101   0.0000       0.655879        17.8474 
 102   0.0000       0.698344        19.0029 
 103   0.0000       0.700561        19.0632 
 104   0.0000       0.703223        19.1357 
 105   0.0000       0.730154        19.8685 
 106   0.0000       0.732848        19.9418 
 107   0.0000       0.753481        20.5033 
 108   0.0000       0.759605        20.6699 
 109   0.0000       0.764529        20.8039 
 110   0.0000       0.770374        20.9630 
 111   0.0000       0.771877        21.0038 
 112   0.0000       0.778851        21.1936 
 113   0.0000       0.795001        21.6331 
 114   0.0000       0.813216        22.1287 
 115   0.0000       0.818206        22.2645 
 116   0.0000       0.822789        22.3892 
 117   0.0000       0.828914        22.5559 
 118   0.0000       0.872804        23.7502 
 119   0.0000       0.880650        23.9637 
 120   0.0000       0.921032        25.0626 
 121   0.0000       0.925938        25.1961 
 122   0.0000       0.935965        25.4689 
 123   0.0000       0.944501        25.7012 
 124   0.0000       0.963950        26.2304 
 125   0.0000       0.973299        26.4848 
 126   0.0000       0.987491        26.8710 
 127   0.0000       1.017996        27.7011 
 128   0.0000       1.032342        28.0914 
 129   0.0000       1.033165        28.1139 
 130   0.0000       1.091665        29.7057 
 131   0.0000       1.111276        30.2394 
 132   0.0000       1.130614        30.7656 
 133   0.0000       1.146451        31.1965 
 134   0.0000       1.158859        31.5341 
 135   0.0000       1.160144        31.5691 
 136   0.0000       1.175069        31.9752 
 137   0.0000       1.180550        32.1244 
 138   0.0000       1.181077        32.1387 
 139   0.0000       1.199107        32.6294 
 140   0.0000       1.221351        33.2347 
 141   0.0000       1.221469        33.2379 
 142   0.0000       1.247280        33.9402 
 143   0.0000       1.256187        34.1826 
 144   0.0000       1.285259        34.9737 
 145   0.0000       1.291275        35.1374 
 146   0.0000       1.337920        36.4067 
 147   0.0000       1.340329        36.4722 
 148   0.0000       1.356298        36.9067 
 149   0.0000       1.362962        37.0881 
 150   0.0000       1.363916        37.1140 
 151   0.0000       1.365733        37.1635 
 152   0.0000       1.384047        37.6618 
 153   0.0000       1.395043        37.9611 
 154   0.0000       1.402215        38.1562 
 155   0.0000       1.406865        38.2827 
 156   0.0000       1.407393        38.2971 
 157   0.0000       1.422688        38.7133 
 158   0.0000       1.466644        39.9094 
 159   0.0000       1.467372        39.9292 
 160   0.0000       1.505202        40.9586 
 161   0.0000       1.539044        41.8795 
 162   0.0000       1.547954        42.1220 
 163   0.0000       1.569672        42.7130 
 164   0.0000       1.575017        42.8584 
 165   0.0000       1.585174        43.1348 
 166   0.0000       1.638764        44.5930 
 167   0.0000       1.640429        44.6383 
 168   0.0000       1.654609        45.0242 
 169   0.0000       1.660951        45.1968 
 170   0.0000       1.661320        45.2068 
 171   0.0000       1.700776        46.2805 
 172   0.0000       1.711408        46.5698 
 173   0.0000       1.736081        47.2412 
 174   0.0000       1.760670        47.9103 
 175   0.0000       1.780835        48.4590 
 176   0.0000       1.806502        49.1574 
 177   0.0000       1.830936        49.8223 
 178   0.0000       1.836722        49.9797 
 179   0.0000       1.842943        50.1490 
 180   0.0000       1.879711        51.1495 
 181   0.0000       1.889253        51.4092 
 182   0.0000       1.933694        52.6185 
 183   0.0000       1.936292        52.6892 
 184   0.0000       1.957790        53.2742 
 185   0.0000       1.965678        53.4888 
 186   0.0000       1.994746        54.2798 
 187   0.0000       2.002883        54.5012 
 188   0.0000       2.047238        55.7082 
 189   0.0000       2.056323        55.9554 
 190   0.0000       2.107749        57.3548 
 191   0.0000       2.111251        57.4501 
 192   0.0000       2.124706        57.8162 
 193   0.0000       2.146848        58.4187 
 194   0.0000       2.164179        58.8903 
 195   0.0000       2.179233        59.2999 
 196   0.0000       2.193156        59.6788 
 197   0.0000       2.206731        60.0482 
 198   0.0000       2.263323        61.5882 
 199   0.0000       2.297549        62.5195 
 200   0.0000       2.322701        63.2039 
 201   0.0000       2.325782        63.2877 
 202   0.0000       2.327139        63.3247 
 203   0.0000       2.328944        63.3738 
 204   0.0000       2.358101        64.1672 
 205   0.0000       2.358800        64.1862 
 206   0.0000       2.369973        64.4902 
 207   0.0000       2.421590        65.8948 
 208   0.0000       2.426698        66.0338 
 209   0.0000       2.428705        66.0884 
 210   0.0000       2.439369        66.3786 
 211   0.0000       2.450687        66.6866 
 212   0.0000       2.453040        66.7506 
 213   0.0000       2.478051        67.4312 
 214   0.0000       2.487626        67.6917 
 215   0.0000       2.503492        68.1235 
 216   0.0000       2.528489        68.8037 
 217   0.0000       2.531554        68.8871 
 218   0.0000       2.532640        68.9166 
 219   0.0000       2.551339        69.4255 
 220   0.0000       2.586554        70.3837 
 221   0.0000       2.588376        70.4333 
 222   0.0000       2.605125        70.8891 
 223   0.0000       2.611333        71.0580 
 224   0.0000       2.625006        71.4300 
 225   0.0000       2.630141        71.5698 
 226   0.0000       2.630322        71.5747 
 227   0.0000       2.669686        72.6458 
 228   0.0000       2.701325        73.5068 
 229   0.0000       2.711870        73.7937 
 230   0.0000       2.729156        74.2641 
 231   0.0000       2.730893        74.3114 
 232   0.0000       2.736525        74.4646 
 233   0.0000       2.760957        75.1295 
 234   0.0000       2.765676        75.2579 
 235   0.0000       2.765682        75.2580 
 236   0.0000       2.826560        76.9146 
 237   0.0000       2.872880        78.1750 
 238   0.0000       2.896513        78.8181 
 239   0.0000       2.924092        79.5686 
 240   0.0000       2.930114        79.7325 
 241   0.0000       2.930231        79.7356 
 242   0.0000       2.935525        79.8797 
 243   0.0000       2.938488        79.9603 
 244   0.0000       2.959626        80.5355 
 245   0.0000       2.974451        80.9389 
 246   0.0000       2.986280        81.2608 
 247   0.0000       2.986798        81.2749 
 248   0.0000       2.987617        81.2972 
 249   0.0000       3.024466        82.2999 
 250   0.0000       3.036723        82.6334 
 251   0.0000       3.096678        84.2649 
 252   0.0000       3.108323        84.5818 
 253   0.0000       3.125265        85.0428 
 254   0.0000       3.133300        85.2614 
 255   0.0000       3.138452        85.4016 
 256   0.0000       3.144802        85.5744 
 257   0.0000       3.195299        86.9485 
 258   0.0000       3.195318        86.9490 
 259   0.0000       3.221670        87.6661 
 260   0.0000       3.233388        87.9850 
 261   0.0000       3.245371        88.3110 
 262   0.0000       3.266500        88.8860 
 263   0.0000       3.273560        89.0781 
 264   0.0000       3.274850        89.1132 
 265   0.0000       3.300014        89.7980 
 266   0.0000       3.339332        90.8679 
 267   0.0000       3.372250        91.7636 
 268   0.0000       3.391943        92.2995 
 269   0.0000       3.391950        92.2997 
 270   0.0000       3.393733        92.3482 
 271   0.0000       3.400152        92.5228 
 272   0.0000       3.411384        92.8285 
 273   0.0000       3.450309        93.8877 
 274   0.0000       3.452510        93.9476 
 275   0.0000       3.469475        94.4092 
 276   0.0000       3.474206        94.5379 
 277   0.0000       3.517175        95.7072 
 278   0.0000       3.520072        95.7860 
 279   0.0000       3.552111        96.6579 
 280   0.0000       3.561138        96.9035 
 281   0.0000       3.586138        97.5838 
 282   0.0000       3.587720        97.6268 
 283   0.0000       3.679961       100.1368 
 284   0.0000       3.719237       101.2056 
 285   0.0000       3.724751       101.3556 
 286   0.0000       3.780644       102.8766 
 287   0.0000       3.798902       103.3734 
 288   0.0000       3.803800       103.5067 
 289   0.0000       3.843320       104.5821 
 290   0.0000       3.864017       105.1453 
 291   0.0000       3.864182       105.1497 
 292   0.0000       3.886524       105.7577 
 293   0.0000       3.909256       106.3763 
 294   0.0000       3.939289       107.1935 
 295   0.0000       3.950356       107.4946 
 296   0.0000       3.981224       108.3346 
 297   0.0000       3.981286       108.3363 
 298   0.0000       3.983025       108.3836 
 299   0.0000       4.020871       109.4135 
 300   0.0000       4.026328       109.5620 
 301   0.0000       4.063945       110.5856 
 302   0.0000       4.076111       110.9166 
 303   0.0000       4.076207       110.9192 
 304   0.0000       4.109950       111.8374 
 305   0.0000       4.123062       112.1942 
 306   0.0000       4.195235       114.1582 
 307   0.0000       4.215202       114.7015 
 308   0.0000       4.306425       117.1838 
 309   0.0000       4.328082       117.7731 
 310   0.0000       4.356425       118.5443 
 311   0.0000       4.398024       119.6763 
 312   0.0000       4.503479       122.5459 
 313   0.0000       4.504139       122.5639 
 314   0.0000       4.511882       122.7746 
 315   0.0000       4.567744       124.2946 
 316   0.0000       4.599529       125.1595 
 317   0.0000       4.613844       125.5491 
 318   0.0000       4.617447       125.6471 
 319   0.0000       4.618303       125.6704 
 320   0.0000       4.660270       126.8124 
 321   0.0000       4.667852       127.0187 
 322   0.0000       4.668735       127.0427 
 323   0.0000       4.672105       127.1344 
 324   0.0000       4.703210       127.9809 
 325   0.0000       4.704874       128.0261 
 326   0.0000       4.719198       128.4159 
 327   0.0000       4.789184       130.3203 
 328   0.0000       4.789223       130.3214 
 329   0.0000       4.805370       130.7608 
 330   0.0000       4.814921       131.0207 
 331   0.0000       4.820656       131.1767 
 332   0.0000       4.908922       133.5786 
 333   0.0000       4.932200       134.2120 
 334   0.0000       4.933499       134.2473 
 335   0.0000       4.994574       135.9093 
 336   0.0000       5.011055       136.3577 
 337   0.0000       5.109619       139.0398 
 338   0.0000       5.121170       139.3541 
 339   0.0000       5.139450       139.8515 
 340   0.0000       5.139717       139.8588 
 341   0.0000       5.234561       142.4396 
 342   0.0000       5.425359       147.6315 
 343   0.0000       5.431090       147.7875 
 344   0.0000       5.433035       147.8404 
 345   0.0000       5.443136       148.1153 
 346   0.0000       5.466103       148.7402 
 347   0.0000       5.494558       149.5145 
 348   0.0000       5.495205       149.5321 
 349   0.0000       5.516529       150.1124 
 350   0.0000       5.604141       152.4964 
 351   0.0000       5.606541       152.5617 
 352   0.0000       5.708011       155.3229 
 353   0.0000       5.769462       156.9950 
 354   0.0000       5.852621       159.2579 
 355   0.0000       5.869511       159.7175 
 356   0.0000       5.928191       161.3143 
 357   0.0000       5.964832       162.3113 
 358   0.0000       6.160410       167.6333 
 359   0.0000       6.177144       168.0886 
 360   0.0000       6.957082       189.3118 
 361   0.0000       6.958897       189.3612 
 362   0.0000       6.966025       189.5552 
 363   0.0000       6.967883       189.6057 
 364   0.0000       6.982769       190.0108 
 365   0.0000       6.983894       190.0414 
 366   0.0000       6.987054       190.1274 
 367   0.0000       6.995042       190.3448 
 368   0.0000       7.000861       190.5031 
 369   0.0000       7.004203       190.5941 
 370   0.0000       7.012385       190.8167 
 371   0.0000       7.013093       190.8360 
 372   0.0000       7.022983       191.1051 
 373   0.0000       7.023944       191.1312 
 374   0.0000       7.026863       191.2107 
 375   0.0000       7.032419       191.3619 
 376   0.0000       7.077101       192.5777 
 377   0.0000       7.079960       192.6555 
 378   0.0000       7.088172       192.8790 
 379   0.0000       7.099457       193.1861 
 380   0.0000       7.158374       194.7892 
 381   0.0000       7.180519       195.3918 
 382   0.0000       7.234548       196.8621 
 383   0.0000       7.273503       197.9221 
 384   0.0000       7.276511       198.0039 
 385   0.0000       7.408768       201.6028 
 386   0.0000       7.555067       205.5838 
 387   0.0000       7.637527       207.8277 
 388   0.0000       8.331914       226.7229 
 389   0.0000       8.343824       227.0470 
 390   0.0000       8.419285       229.1004 
 391   0.0000       8.429528       229.3791 
 392   0.0000       8.433036       229.4746 
 393   0.0000       8.441755       229.7118 
 394   0.0000       8.451962       229.9896 
 395   0.0000       8.466050       230.3729 
 396   0.0000       8.537116       232.3067 
 397   0.0000       8.540692       232.4040 
 398   0.0000       8.606594       234.1973 
 399   0.0000       8.623468       234.6565 
 400   0.0000       8.657586       235.5849 
 401   0.0000       8.657599       235.5853 
 402   0.0000       8.983682       244.4584 
 403   0.0000       8.995434       244.7782 
 404   0.0000       9.028459       245.6768 
 405   0.0000       9.048514       246.2226 
 406   0.0000       9.170173       249.5331 
 407   0.0000       9.219772       250.8827 
 408   0.0000      22.976807       625.2307 
 409   0.0000      23.025333       626.5512 
 410   0.0000      23.109526       628.8422 
 411   0.0000      23.195651       631.1858 
 412   0.0000      32.011933       871.0890 
 413   0.0000      32.039501       871.8392 
 414   0.0000      32.173437       875.4837 
 415   0.0000      32.194718       876.0628 
 416   0.0000      57.110742      1554.0623 
 417   0.0000      57.195585      1556.3710 
 418   0.0000      57.379396      1561.3728 
 419   0.0000      57.407564      1562.1392 

                    ********************************
                    * MULLIKEN POPULATION ANALYSIS *
                    ********************************

-----------------------
MULLIKEN ATOMIC CHARGES
-----------------------
   0 C :   -0.035473
   1 C :   -0.026998
   2 N :    0.008410
   3 N :    0.006290
   4 H :    0.545686
   5 H :   -0.340946
   6 H :    0.318503
   7 H :    0.312566
   8 F :   -0.394353
   9 F :   -0.393446
  10 H :    0.313247
  11 H :    0.319150
  12 H :   -0.343691
  13 F :   -0.393368
  14 F :   -0.394262
  15 H :    0.546076
  16 C :   -0.026861
  17 C :   -0.035343
  18 N :    0.006354
  19 N :    0.008461
Sum of atomic charges:   -0.0000000

--------------------------------
MULLIKEN REDUCED ORBITAL CHARGES
--------------------------------
  0 C s       :     3.138140  s :     3.138140
      pz      :     0.979513  p :     2.754907
      px      :     0.885952
      py      :     0.889442
      dz2     :     0.008690  d :     0.122522
      dxz     :     0.015479
      dyz     :     0.014004
      dx2y2   :     0.037365
      dxy     :     0.046984
      f0      :     0.002676  f :     0.019904
      f+1     :     0.001643
      f-1     :     0.001147
      f+2     :     0.001072
      f-2     :     0.002928
      f+3     :     0.007780
      f-3     :     0.002658
  1 C s       :     3.134827  s :     3.134827
      pz      :     0.979889  p :     2.750799
      px      :     0.952454
      py      :     0.818456
      dz2     :     0.008777  d :     0.121497
      dxz     :     0.005572
      dyz     :     0.023996
      dx2y2   :     0.047340
      dxy     :     0.035812
      f0      :     0.002666  f :     0.019874
      f+1     :     0.000876
      f-1     :     0.001921
      f+2     :     0.002520
      f-2     :     0.001559
      f+3     :     0.004186
      f-3     :     0.006147
  2 N s       :     3.764449  s :     3.764449
      pz      :     0.974053  p :     3.180063
      px      :     1.122439
      py      :     1.083570
      dz2     :     0.002365  d :     0.044941
      dxz     :     0.013822
      dyz     :     0.004601
      dx2y2   :     0.015316
      dxy     :     0.008838
      f0      :     0.000346  f :     0.002137
      f+1     :     0.000076
      f-1     :     0.000062
      f+2     :     0.000171
      f-2     :     0.000458
      f+3     :     0.000897
      f-3     :     0.000127
  3 N s       :     3.766052  s :     3.766052
      pz      :     0.974795  p :     3.180553
      px      :     0.989458
      py      :     1.216300
      dz2     :     0.002555  d :     0.044970
      dxz     :     0.002330
      dyz     :     0.015964
      dx2y2   :     0.010528
      dxy     :     0.013594
      f0      :     0.000332  f :     0.002136
      f+1     :     0.000052
      f-1     :     0.000107
      f+2     :     0.000353
      f-2     :     0.000272
      f+3     :     0.000290
      f-3     :     0.000729
  4 H s       :     0.378178  s :     0.378178
      pz      :     0.005940  p :     0.076136
      px      :     0.052572
      py      :     0.017625
  5 H s       :     1.301822  s :     1.301822
      pz      :     0.001999  p :     0.039124
      px      :     0.018681
      py      :     0.018444
  6 H s       :     0.587735  s :     0.587735
      pz      :     0.012137  p :     0.093762
      px      :     0.034215
      py      :     0.047410
  7 H s       :     0.593436  s :     0.593436
      pz      :     0.012141  p :     0.093999
      px      :     0.030171
      py      :     0.051686
  8 F s       :     3.947715  s :     3.947715
      pz      :     1.972128  p :     5.436048
      px      :     1.672539
      py      :     1.791381
      dz2     :     0.001777  d :     0.010288
      dxz     :     0.000613
      dyz     :     0.000659
      dx2y2   :     0.001888
      dxy     :     0.005350
      f0      :     0.000019  f :     0.000303
      f+1     :     0.000057
      f-1     :     0.000041
      f+2     :     0.000004
      f-2     :     0.000018
      f+3     :     0.000054
      f-3     :     0.000110
  9 F s       :     3.947379  s :     3.947379
      pz      :     1.971000  p :     5.435502
      px      :     1.878908
      py      :     1.585594
      dz2     :     0.001746  d :     0.010261
      dxz     :     0.000340
      dyz     :     0.000975
      dx2y2   :     0.005267
      dxy     :     0.001932
      f0      :     0.000021  f :     0.000305
      f+1     :     0.000016
      f-1     :     0.000080
      f+2     :     0.000019
      f-2     :     0.000005
      f+3     :     0.000055
      f-3     :     0.000108
 10 H s       :     0.592754  s :     0.592754
      pz      :     0.012148  p :     0.094000
      px      :     0.030176
      py      :     0.051676
 11 H s       :     0.587086  s :     0.587086
      pz      :     0.012144  p :     0.093764
      px      :     0.034233
      py      :     0.047387
 12 H s       :     1.304557  s :     1.304557
      pz      :     0.002003  p :     0.039134
      px      :     0.018684
      py      :     0.018447
 13 F s       :     3.947377  s :     3.947377
      pz      :     1.970991  p :     5.435424
      px      :     1.878934
      py      :     1.585499
      dz2     :     0.001746  d :     0.010262
      dxz     :     0.000341
      dyz     :     0.000976
      dx2y2   :     0.005267
      dxy     :     0.001932
      f0      :     0.000021  f :     0.000305
      f+1     :     0.000016
      f-1     :     0.000080
      f+2     :     0.000019
      f-2     :     0.000005
      f+3     :     0.000055
      f-3     :     0.000108
 14 F s       :     3.947710  s :     3.947710
      pz      :     1.972118  p :     5.435960
      px      :     1.672524
      py      :     1.791319
      dz2     :     0.001777  d :     0.010289
      dxz     :     0.000613
      dyz     :     0.000660
      dx2y2   :     0.001889
      dxy     :     0.005351
      f0      :     0.000019  f :     0.000303
      f+1     :     0.000057
      f-1     :     0.000041
      f+2     :     0.000004
      f-2     :     0.000018
      f+3     :     0.000054
      f-3     :     0.000110
 15 H s       :     0.377800  s :     0.377800
      pz      :     0.005943  p :     0.076124
      px      :     0.052559
      py      :     0.017623
 16 C s       :     3.134819  s :     3.134819
      pz      :     0.979909  p :     2.750699
      px      :     0.952436
      py      :     0.818354
      dz2     :     0.008777  d :     0.121470
      dxz     :     0.005570
      dyz     :     0.023993
      dx2y2   :     0.047323
      dxy     :     0.035807
      f0      :     0.002666  f :     0.019873
      f+1     :     0.000876
      f-1     :     0.001920
      f+2     :     0.002520
      f-2     :     0.001559
      f+3     :     0.004186
      f-3     :     0.006147
 17 C s       :     3.138147  s :     3.138147
      pz      :     0.979533  p :     2.754801
      px      :     0.885882
      py      :     0.889386
      dz2     :     0.008690  d :     0.122494
      dxz     :     0.015475
      dyz     :     0.014003
      dx2y2   :     0.037361
      dxy     :     0.046965
      f0      :     0.002676  f :     0.019902
      f+1     :     0.001642
      f-1     :     0.001147
      f+2     :     0.001072
      f-2     :     0.002928
      f+3     :     0.007779
      f-3     :     0.002657
 18 N s       :     3.766081  s :     3.766081
      pz      :     0.974777  p :     3.180455
      px      :     0.989390
      py      :     1.216288
      dz2     :     0.002555  d :     0.044975
      dxz     :     0.002330
      dyz     :     0.015966
      dx2y2   :     0.010528
      dxy     :     0.013595
      f0      :     0.000332  f :     0.002136
      f+1     :     0.000052
      f-1     :     0.000107
      f+2     :     0.000353
      f-2     :     0.000272
      f+3     :     0.000290
      f-3     :     0.000729
 19 N s       :     3.764491  s :     3.764491
      pz      :     0.974037  p :     3.179965
      px      :     1.122421
      py      :     1.083506
      dz2     :     0.002365  d :     0.044947
      dxz     :     0.013824
      dyz     :     0.004601
      dx2y2   :     0.015317
      dxy     :     0.008839
      f0      :     0.000346  f :     0.002137
      f+1     :     0.000076
      f-1     :     0.000062
      f+2     :     0.000171
      f-2     :     0.000458
      f+3     :     0.000897
      f-3     :     0.000127


                     *******************************
                     * LOEWDIN POPULATION ANALYSIS *
                     *******************************

----------------------
LOEWDIN ATOMIC CHARGES
----------------------
   0 C :   -0.210088
   1 C :   -0.209755
   2 N :    0.207231
   3 N :    0.207232
   4 H :    0.192281
   5 H :    0.094852
   6 H :    0.129349
   7 H :    0.128990
   8 F :   -0.269854
   9 F :   -0.269979
  10 H :    0.128933
  11 H :    0.129279
  12 H :    0.094527
  13 F :   -0.269983
  14 F :   -0.269853
  15 H :    0.192177
  16 C :   -0.209815
  17 C :   -0.210141
  18 N :    0.207309
  19 N :    0.207307

-------------------------------
LOEWDIN REDUCED ORBITAL CHARGES
-------------------------------
  0 C s       :     2.774555  s :     2.774555
      pz      :     0.903448  p :     2.866280
      px      :     0.971703
      py      :     0.991128
      dz2     :     0.054407  d :     0.491440
      dxz     :     0.048618
      dyz     :     0.061692
      dx2y2   :     0.165421
      dxy     :     0.161303
      f0      :     0.006196  f :     0.077813
      f+1     :     0.007768
      f-1     :     0.005019
      f+2     :     0.006830
      f-2     :     0.007420
      f+3     :     0.026849
      f-3     :     0.017730
  1 C s       :     2.774483  s :     2.774483
      pz      :     0.904224  p :     2.866228
      px      :     0.914573
      py      :     1.047432
      dz2     :     0.054198  d :     0.491233
      dxz     :     0.014022
      dyz     :     0.097400
      dx2y2   :     0.149656
      dxy     :     0.175957
      f0      :     0.006218  f :     0.077810
      f+1     :     0.002862
      f-1     :     0.009863
      f+2     :     0.006508
      f-2     :     0.008010
      f+3     :     0.019135
      f-3     :     0.025214
  2 N s       :     3.324093  s :     3.324093
      pz      :     0.941225  p :     3.342834
      px      :     1.314709
      py      :     1.086900
      dz2     :     0.011544  d :     0.111183
      dxz     :     0.024913
      dyz     :     0.008118
      dx2y2   :     0.034406
      dxy     :     0.032201
      f0      :     0.001642  f :     0.014659
      f+1     :     0.001759
      f-1     :     0.000697
      f+2     :     0.000808
      f-2     :     0.002019
      f+3     :     0.003996
      f-3     :     0.003740
  3 N s       :     3.324145  s :     3.324145
      pz      :     0.943197  p :     3.342754
      px      :     0.997843
      py      :     1.401714
      dz2     :     0.011666  d :     0.111204
      dxz     :     0.004334
      dyz     :     0.028899
      dx2y2   :     0.030973
      dxy     :     0.035332
      f0      :     0.001623  f :     0.014664
      f+1     :     0.000507
      f-1     :     0.001974
      f+2     :     0.001575
      f-2     :     0.001314
      f+3     :     0.004003
      f-3     :     0.003668
  4 H s       :     0.592516  s :     0.592516
      pz      :     0.012345  p :     0.215202
      px      :     0.149116
      py      :     0.053741
  5 H s       :     0.818694  s :     0.818694
      pz      :     0.002477  p :     0.086454
      px      :     0.041986
      py      :     0.041991
  6 H s       :     0.615241  s :     0.615241
      pz      :     0.022718  p :     0.255410
      px      :     0.107323
      py      :     0.125369
  7 H s       :     0.615572  s :     0.615572
      pz      :     0.022907  p :     0.255438
      px      :     0.078004
      py      :     0.154527
  8 F s       :     3.816580  s :     3.816580
      pz      :     1.958957  p :     5.433476
      px      :     1.677462
      py      :     1.797057
      dz2     :     0.004054  d :     0.019250
      dxz     :     0.000816
      dyz     :     0.000592
      dx2y2   :     0.003042
      dxy     :     0.010747
      f0      :     0.000017  f :     0.000547
      f+1     :     0.000117
      f-1     :     0.000084
      f+2     :     0.000008
      f-2     :     0.000017
      f+3     :     0.000101
      f-3     :     0.000203
  9 F s       :     3.816566  s :     3.816566
      pz      :     1.957839  p :     5.433616
      px      :     1.859087
      py      :     1.616690
[...]
   115. A(H  10,H  15,C  16)           98.45  0.000217   -1.00     97.45   
   116. A(H  11,H  15,C  16)          120.07 -0.000102   -1.28    118.78   
   117. A(H  12,H  15,C  16)          168.36  0.000148    0.08    168.45   
   118. A(C  17,H  15,N  18)           40.42 -0.000262    0.10     40.53   
   119. A(H  10,H  15,H  11)          141.46 -0.000114    2.28    143.74   
   120. A(H  10,H  15,H  12)           70.07 -0.000072    1.11     71.18   
   121. A(H  15,C  16,N  18)          101.23 -0.000247    0.06    101.29   
   122. A(H  15,C  16,C  17)           77.75 -0.000188    0.21     77.96   
   123. A(H  15,C  17,N  19)          101.02  0.000311    0.12    101.14   
   124. A(H  15,C  17,C  16)           78.93  0.000431   -0.28     78.65   
   125. A(H  15,N  18,C  16)           61.67  0.000266   -0.10     61.56   
   126. A(H  15,N  19,C  17)           61.78 -0.000212   -0.12     61.66   
   127. D(C   0,H   4,C   1,N   3)    179.65 -0.000114   -0.08    179.57   
   128. D(H   7,H   4,N   2,C   0)     15.65 -0.000124    1.28     16.93   
   129. D(H   7,H   4,C   1,C   0)   -169.28  0.000051    1.13   -168.15   
   130. D(H   7,H   4,C   1,N   3)     10.37 -0.000063    1.05     11.43   
   131. D(H   6,H   4,C   1,N   3)   -168.26 -0.000054    1.14   -167.12   
   132. D(H   5,H   4,N   3,C   1)   -179.43 -0.000045    0.04   -179.38   
   133. D(H   6,H   4,C   0,C   1)   -169.36  0.000051    1.18   -168.18   
   134. D(H   6,H   4,N   3,C   1)     14.73 -0.000091    1.34     16.08   
   135. D(H   7,H   4,C   0,C   1)     12.59  0.000055    1.24     13.83   
   136. D(H   7,H   4,C   0,N   2)   -167.94 -0.000092    1.03   -166.92   
   137. D(H   5,H   4,C   0,N   2)     -2.16 -0.000153   -0.43     -2.60   
   138. D(H   6,H   4,C   1,C   0)     12.09  0.000060    1.21     13.30   
   139. D(N   3,H   4,C   1,C   0)   -179.65  0.000114    0.08   -179.57   
   140. D(C   1,H   4,C   0,N   2)    179.47 -0.000147   -0.21    179.26   
   141. D(H   7,H   4,N   3,C   1)   -169.70 -0.000069    1.08   -168.62   
   142. D(H   5,H   4,C   0,C   1)    178.37 -0.000005   -0.22    178.15   
   143. D(H   5,H   4,N   2,C   0)    179.07 -0.000063   -0.17    178.90   
   144. D(H   5,H   4,C   1,C   0)   -178.25  0.000002    0.15   -178.10   
   145. D(H   5,H   4,C   1,N   3)      1.40 -0.000112    0.08      1.48   
   146. D(H   6,H   4,C   0,N   2)     10.11 -0.000096    0.96     11.07   
   147. D(H   6,H   4,N   2,C   0)   -169.75 -0.000105    1.04   -168.71   
   148. D(N   2,H   4,C   0,C   1)   -179.47  0.000147    0.21   -179.26   
   149. D(H   7,H   5,H   4,N   2)   -168.52 -0.000034    1.12   -167.40   
   150. D(H   7,H   5,H   4,C   1)      9.47  0.000053    1.02     10.50   
   151. D(H   6,H   5,H   4,N   3)   -169.63 -0.000018    1.05   -168.58   
   152. D(H   7,H   5,H   4,C   0)   -167.21  0.000060    1.39   -165.82   
   153. D(H   6,H   5,H   4,C   1)   -170.50  0.000053    1.01   -169.49   
   154. D(H   6,H   5,H   4,C   0)     12.82  0.000061    1.38     14.19   
   155. D(H   6,H   5,H   4,N   2)     11.51 -0.000033    1.10     12.62   
   156. D(H   7,H   5,H   4,N   3)     10.34 -0.000018    1.06     11.40   
   157. D(H   6,H   5,H   4,H   7)   -179.97  0.000001   -0.02   -179.98   
   158. D(H   7,H   5,H   4,H   6)    179.97 -0.000001    0.02    179.98   
   159. D(H  10,H   6,H   4,N   2)   -174.64 -0.000034    0.63   -174.01   
   160. D(H   4,H   6,H   5,H   7)   -179.73  0.000000   -0.01   -179.74   
   161. D(H  10,H   6,H   5,H   4)    179.69 -0.000003    0.10    179.78   
   162. D(F   8,H   6,H   5,H   7)   -178.46 -0.000022    0.17   -178.28   
   163. D(F   8,H   6,H   5,H   4)      1.27 -0.000022    0.19      1.46   
   164. D(H  10,H   6,H   4,H   7)     -0.28 -0.000002    0.09     -0.19   
   165. D(H  10,H   6,H   4,N   3)    172.65  0.000049   -0.59    172.06   
   166. D(H  10,H   6,H   4,C   1)    177.57 -0.000010   -0.15    177.41   
   167. D(F   8,H   6,H   4,C   0)      3.60 -0.000016    0.37      3.96   
   168. D(H  10,H   6,H   4,H   5)     -0.33 -0.000003    0.10     -0.22   
   169. D(F   8,H   6,H   4,N   3)     -6.10  0.000035   -0.54     -6.64   
   170. D(F   8,H   6,H   4,C   1)     -1.19 -0.000023   -0.10     -1.29   
   171. D(H   5,H   6,H   4,C   0)   -177.32  0.000000    0.22   -177.11   
   172. D(H   5,H   6,H   4,N   3)    172.98  0.000052   -0.70    172.28   
   173. D(H   5,H   6,H   4,C   1)    177.89 -0.000007   -0.26    177.64   
   174. D(F   8,H   6,H   4,N   2)      6.61 -0.000047    0.67      7.28   
   175. D(F   8,H   6,H   4,H   7)   -179.03 -0.000015    0.13   -178.90   
   176. D(H   5,H   6,H   4,N   2)   -174.31 -0.000031    0.52   -173.79   
   177. D(H   5,H   6,H   4,H   7)      0.05  0.000001   -0.02      0.03   
   178. D(H  10,H   6,H   5,H   7)     -0.04 -0.000003    0.08      0.04   
   179. D(H  10,H   6,H   4,C   0)   -177.65 -0.000003    0.32   -177.33   
   180. D(F   8,H   6,H   4,H   5)   -179.08 -0.000016    0.15   -178.93   
   181. D(H   5,H   7,H   4,N   2)    171.43  0.000047   -0.67    170.76   
   182. D(F   9,H   7,H   4,H   6)   -179.13  0.000025   -0.25   -179.38   
   183. D(F   9,H   7,H   4,N   3)      5.86 -0.000007    0.30      6.16   
   184. D(F   9,H   7,H   4,N   2)     -7.65  0.000072   -0.94     -8.59   
   185. D(H   5,H   7,H   4,C   1)   -178.13  0.000006    0.25   -177.88   
   186. D(F   9,H   7,H   4,C   1)      2.78  0.000031   -0.02      2.77   
   187. D(F   9,H   7,H   4,C   0)     -2.24  0.000026   -0.50     -2.74   
   188. D(H   5,H   7,H   4,C   0)    176.84  0.000001   -0.24    176.61   
   189. D(F   9,H   7,H   4,H   5)   -179.08  0.000025   -0.27   -179.35   
   190. D(H  11,H   7,H   4,N   3)   -174.76 -0.000034    0.47   -174.28   
   191. D(F  14,H   7,H   5,H   6)     -0.49 -0.000002   -0.11     -0.60   
   192. D(F  14,H   7,H   5,H   4)    179.79 -0.000002   -0.13    179.66   
   193. D(H  11,H   7,H   5,H   4)   -179.72 -0.000001   -0.09   -179.80   
   194. D(H   4,H   7,H   5,H   6)    179.73 -0.000000    0.01    179.74   
   195. D(F   9,H   7,H   5,H   4)      4.45 -0.000017    0.71      5.15   
   196. D(F  14,H   7,H   4,H   6)     -0.29 -0.000003   -0.12     -0.42   
   197. D(F  14,H   7,H   4,N   3)   -175.30 -0.000035    0.43   -174.87   
   198. D(F  14,H   7,H   4,N   2)    171.19  0.000045   -0.81    170.37   
   199. D(F  14,H   7,H   4,C   1)   -178.37  0.000004    0.11   -178.27   
   200. D(H  11,H   7,H   5,H   6)      0.01 -0.000001   -0.07     -0.06   
   201. D(F  14,H   7,H   4,C   0)    176.60 -0.000001   -0.38    176.22   
   202. D(F  14,H   7,H   4,H   5)     -0.24 -0.000002   -0.14     -0.38   
   203. D(F   9,H   7,H   5,H   6)   -175.83 -0.000017    0.72   -175.11   
   204. D(H  11,H   7,H   4,H   6)      0.25 -0.000002   -0.08      0.18   
   205. D(H  11,H   7,H   4,N   2)    171.73  0.000046   -0.77    170.97   
   206. D(H  11,H   7,H   4,C   1)   -177.83  0.000005    0.15   -177.68   
   207. D(H  11,H   7,H   4,C   0)    177.15 -0.000000   -0.33    176.81   
   208. D(H  11,H   7,H   4,H   5)      0.30 -0.000001   -0.10      0.21   
   209. D(H   5,H   7,H   4,H   6)     -0.05 -0.000001    0.02     -0.03   
   210. D(H   5,H   7,H   4,N   3)   -175.06 -0.000033    0.57   -174.49   
   211. D(H  11,F   9,H   7,H   4)    179.42 -0.000025    0.15    179.58   
   212. D(H  11,F   9,H   7,F  14)      0.43 -0.000002    0.07      0.50   
   213. D(H  11,F   9,H   7,H   5)    175.85  0.000016   -0.80    175.05   
   214. D(H  15,H  10,H   6,H   5)      0.38  0.000006   -0.02      0.35   
   215. D(H  15,H  10,H   6,F   8)    179.35  0.000021   -0.16    179.19   
   216. D(H  12,H  10,H   6,H   5)      0.08  0.000004   -0.03      0.05   
   217. D(H  12,H  10,H   6,H   4)      0.17  0.000005   -0.06      0.11   
   218. D(H  12,H  10,H   6,F   8)    179.06  0.000019   -0.17    178.89   
   219. D(F  13,H  10,H   6,F   8)     -0.55  0.000014   -0.10     -0.65   
   220. D(H  15,H  10,H   6,H   4)      0.47  0.000007   -0.05      0.42   
   221. D(F  13,H  10,H   6,H   4)   -179.43 -0.000000    0.00   -179.43   
   222. D(F  13,H  10,H   6,H   5)   -179.52 -0.000001    0.03   -179.49   
   223. D(H  15,H  11,F   9,H   7)     -0.70 -0.000012    0.14     -0.56   
   224. D(H  12,H  11,F   9,H   7)     -0.34 -0.000009    0.14     -0.20   
   225. D(H  15,H  11,H   7,F  14)    177.22  0.000009   -0.30    176.92   
   226. D(H  15,H  11,H   7,H   5)     -0.32  0.000000    0.01     -0.31   
   227. D(H  15,H  11,H   7,H   4)     -0.40  0.000001    0.03     -0.37   
   228. D(H  15,H  11,H   7,F   9)    179.39 -0.000010    0.12    179.51   
   229. D(H  12,H  11,H   7,F  14)    177.51  0.000010   -0.29    177.22   
   230. D(H  12,H  11,H   7,H   5)     -0.03  0.000002    0.02     -0.01   
   231. D(H  12,H  11,H   7,H   4)     -0.11  0.000002    0.04     -0.07   
   232. D(H  12,H  11,H   7,F   9)    179.68 -0.000008    0.13    179.81   
   233. D(F   9,H  11,H   7,F  14)     -2.17  0.000019   -0.42     -2.59   
   234. D(F   9,H  11,H   7,H   5)   -179.71  0.000010   -0.11   -179.82   
   235. D(F   9,H  11,H   7,H   4)   -179.79  0.000010   -0.09   -179.88   
   236. D(F  14,H  11,F   9,H   7)   -178.07 -0.000015    0.34   -177.73   
   237. D(F  14,H  11,H   7,H   5)   -177.54 -0.000009    0.31   -177.23   
   238. D(F  14,H  11,H   7,H   4)   -177.62 -0.000008    0.33   -177.29   
   239. D(F  14,H  11,H   7,F   9)      2.17 -0.000019    0.42      2.59   
   240. D(H  10,H  12,H  11,H  15)    179.98 -0.000003    0.02    180.00   
   241. D(H  10,H  12,H  11,F   9)      1.05  0.000003    0.02      1.07   
   242. D(H  10,H  12,H  11,F  14)    177.48  0.000009   -0.11    177.37   
   243. D(H  15,H  12,H  11,F   9)   -178.93  0.000006   -0.00   -178.93   
   244. D(H  15,H  12,H  11,H   7)   -179.02  0.000004    0.04   -178.99   
   245. D(H  15,H  12,H  11,F  14)     -2.50  0.000013   -0.13     -2.63   
   246. D(H  11,H  12,H  10,H  15)   -179.98  0.000003   -0.02   -180.00   
   247. D(H  11,H  12,H  10,H   6)     -0.99 -0.000004   -0.05     -1.03   
   248. D(H  10,H  12,H  11,H   7)      0.96  0.000001    0.06      1.01   
   249. D(H  11,H  12,H  10,F  13)    177.87  0.000019   -0.22    177.65   
   250. D(H  15,H  12,H  10,H   6)    179.00 -0.000008   -0.03    178.97   
   251. D(H  15,H  12,H  10,F  13)     -2.15  0.000016   -0.20     -2.35   
   252. D(H  11,F  14,H   7,H   4)      2.62 -0.000008    0.34      2.96   
   253. D(H  11,F  14,H   7,F   9)   -177.78 -0.000020    0.43   -177.35   
   254. D(H   7,F  14,H  11,H  15)   -176.77 -0.000012    0.29   -176.48   
   255. D(H   7,F  14,H  11,H  12)   -175.92 -0.000016    0.32   -175.60   
   256. D(H   7,F  14,H  11,F   9)      0.59 -0.000006    0.12      0.71   
   257. D(H  11,F  14,H   7,H   5)      2.55 -0.000008    0.30      2.85   
   258. D(N  19,H  15,H  12,H  10)    172.57  0.000016   -0.63    171.94   
   259. D(N  19,H  15,H  12,H  11)     -7.43  0.000015   -0.63     -8.06   
   260. D(N  18,H  15,H  12,H  10)     -8.73  0.000021   -0.79     -9.52   
   261. D(N  18,H  15,H  12,H  11)    171.27  0.000021   -0.78    170.48   
   262. D(C  17,H  15,H  12,H  10)    173.86  0.000030   -0.66    173.20   
   263. D(C  17,H  15,H  12,H  11)     -6.14  0.000029   -0.65     -6.80   
   264. D(C  16,H  15,H  12,H  11)    170.22  0.000023   -1.00    169.22   
   265. D(H  10,H  15,H  12,H  11)    180.00 -0.000000    0.00    180.00   
   266. D(H  11,H  15,H  12,H  10)   -180.00  0.000000   -0.00   -180.00   
   267. D(N  19,H  15,H  11,F   9)    177.60  0.000041   -0.35    177.25   
   268. D(N  19,H  15,H  11,H   7)    177.41  0.000037   -0.31    177.10   
   269. D(N  19,H  15,H  11,F  14)     -5.54  0.000042   -0.47     -6.00   
   270. D(N  18,H  15,H  11,F   9)   -172.63 -0.000053    0.53   -172.09   
   271. D(N  18,H  15,H  11,H   7)   -172.82 -0.000056    0.57   -172.25   
   272. D(N  18,H  15,H  11,F  14)      4.23 -0.000051    0.41      4.65   
   273. D(C  17,H  15,H  11,H  12)    178.75  0.000016   -0.15    178.60   
   274. D(C  17,H  15,H  11,F   9)    179.99  0.000024   -0.15    179.83   
   275. D(C  17,H  15,H  11,H   7)    179.79  0.000020   -0.11    179.68   
   276. D(C  17,H  15,H  11,F  14)     -3.15  0.000026   -0.27     -3.43   
   277. D(C  16,H  15,H  11,F   9)   -176.49 -0.000028    0.18   -176.31   
   278. D(C  16,H  15,H  11,H   7)   -176.69 -0.000031    0.22   -176.46   
   279. D(C  16,H  15,H  11,F  14)      0.37 -0.000026    0.06      0.43   
   280. D(H  10,H  15,H  11,H  12)     -0.00 -0.000001    0.00      0.00   
   281. D(H  10,H  15,H  11,F   9)      1.24  0.000007   -0.00      1.23   
   282. D(H  10,H  15,H  11,H   7)      1.04  0.000004    0.04      1.08   
   283. D(H  10,H  15,H  11,F  14)    178.10  0.000009   -0.12    177.98   
   284. D(C  16,H  15,H  11,H  12)   -177.73 -0.000036    0.19   -177.54   
   285. D(H  12,H  15,H  11,F   9)      1.24  0.000008   -0.01      1.23   
   286. D(H  12,H  15,H  11,H   7)      1.04  0.000005    0.03      1.08   
   287. D(H  12,H  15,H  11,F  14)    178.10  0.000010   -0.13    177.97   
   288. D(N  19,H  15,H  10,H  12)   -174.59 -0.000058    0.51   -174.09   
   289. D(N  19,H  15,H  10,H   6)   -175.65 -0.000066    0.48   -175.17   
   290. D(N  19,H  15,H  10,F  13)      4.19 -0.000053    0.40      4.59   
   291. D(N  18,H  15,H  10,H  12)    175.77  0.000035   -0.39    175.38   
   292. D(N  18,H  15,H  11,H  12)   -173.87 -0.000061    0.54   -173.33   
   293. D(N  18,H  15,H  10,H   6)    174.71  0.000027   -0.41    174.30   
   294. D(N  18,H  15,H  10,F  13)     -5.45  0.000040   -0.49     -5.95   
   295. D(C  17,H  15,H  10,H  12)   -178.54 -0.000019    0.17   -178.37   
   296. D(N  19,H  15,H  11,H  12)    176.36  0.000033   -0.34    176.02   
   297. D(C  17,H  15,H  10,H   6)   -179.60 -0.000027    0.14   -179.45   
   298. D(C  17,H  15,H  10,F  13)      0.24 -0.000015    0.06      0.30   
   299. D(C  16,H  15,H  10,H  12)    178.02  0.000029   -0.18    177.83   
   300. D(C  16,H  15,H  12,H  10)     -9.78  0.000024   -1.00    -10.78   
   301. D(C  16,H  15,H  10,H   6)    176.96  0.000020   -0.21    176.75   
   302. D(C  16,H  15,H  10,F  13)     -3.21  0.000033   -0.29     -3.49   
   303. D(H  11,H  15,H  10,H  12)      0.00  0.000001   -0.00     -0.00   
   304. D(H  11,H  15,H  10,H   6)     -1.05 -0.000007   -0.03     -1.08   
   305. D(H  11,H  15,H  10,F  13)    178.78  0.000005   -0.11    178.67   
   306. D(H  12,H  15,H  10,H   6)     -1.06 -0.000008   -0.02     -1.08   
   307. D(H  12,H  15,H  10,F  13)    178.78  0.000005   -0.11    178.67   
   308. D(N  18,C  16,H  15,C  17)    179.85 -0.000017    0.14    180.00   
   309. D(N  18,C  16,H  15,H  10)     -7.58  0.000010   -0.65     -8.22   
   310. D(N  18,C  16,H  15,H  11)    170.99  0.000028   -0.70    170.29   
   311. D(N  18,C  16,H  15,H  12)      1.71 -0.000011    0.34      2.05   
   312. D(C  17,C  16,H  15,N  18)   -179.85  0.000017   -0.14   -180.00   
   313. D(C  17,C  16,H  15,H  10)    172.57  0.000028   -0.79    171.78   
   314. D(C  17,C  16,H  15,H  11)     -8.86  0.000046   -0.84     -9.70   
   315. D(C  17,C  16,H  15,H  12)   -178.14  0.000006    0.19   -177.95   
   316. D(N  19,C  17,H  15,C  16)    179.75 -0.000023    0.19    179.94   
   317. D(N  19,C  17,H  15,H  10)    171.12  0.000016   -0.68    170.44   
   318. D(N  19,C  17,H  15,H  11)     -7.97  0.000006   -0.61     -8.58   
   319. D(N  19,C  17,H  15,H  12)     -2.10 -0.000022    0.03     -2.07   
   320. D(C  16,C  17,H  15,N  19)   -179.75  0.000023   -0.19   -179.94   
   321. D(C  16,C  17,H  15,H  10)     -8.63  0.000039   -0.87     -9.50   
   322. D(C  16,C  17,H  15,H  11)    172.28  0.000030   -0.80    171.48   
   323. D(C  16,C  17,H  15,H  12)    178.15  0.000002   -0.16    177.99   
   324. D(C  16,N  18,H  15,H  10)    172.42  0.000019   -0.68    171.74   
   325. D(C  16,N  18,H  15,H  11)    -11.44  0.000050   -0.90    -12.35   
   326. D(C  16,N  18,H  15,H  12)   -179.28 -0.000010    0.14   -179.15   
   327. D(C  17,N  19,H  15,H  10)    -11.45  0.000045   -0.89    -12.34   
   328. D(C  17,N  19,H  15,H  11)    171.97  0.000014   -0.66    171.30   
   329. D(C  17,N  19,H  15,H  12)    179.12 -0.000007    0.01    179.12   
    ----------------------------------------------------------------------------




    ----------------------------------------------------------------------------
                                  WARNING !!!
       The optimization did not converge but reached the maximum number of
       optimization cycles.
       Please check your results very carefully.
    ----------------------------------------------------------------------------



                            ***************************************
                            *     ORCA property calculations      *
                            ***************************************

                                    ---------------------
                                    Active property flags
                                    ---------------------
   (+) Dipole Moment


------------------------------------------------------------------------------
                       ORCA ELECTRIC PROPERTIES CALCULATION
------------------------------------------------------------------------------

Dipole Moment Calculation                       ... on
Quadrupole Moment Calculation                   ... off
Polarizability Calculation                      ... off
GBWName                                         ... F4-TCNQ.gbw
Electron density file                           ... F4-TCNQ.scfp
The origin for moment calculation is the CENTER OF MASS  = (-12.930753,  9.727258 -1.045130)

-------------
DIPOLE MOMENT
-------------
                                X             Y             Z
Electronic contribution:      0.18311      -0.11112      -0.10183
Nuclear contribution   :     -0.50582       0.02545       0.11447
                        -----------------------------------------
Total Dipole Moment    :     -0.32271      -0.08567       0.01264
                        -----------------------------------------
Magnitude (a.u.)       :      0.33413
Magnitude (Debye)      :      0.84929



--------------------
Rotational spectrum 
--------------------
 
Rotational constants in cm-1:     0.015276     0.004079     0.003227 
Rotational constants in MHz :   457.953062   122.272988    96.735478 

 Dipole components along the rotational axes: 
x,y,z [a.u.] :    -0.333466     0.019885     0.006951 
x,y,z [Debye]:    -0.847603     0.050544     0.017669 

 
--------------------------------------------------------------------------
[[63125,1],0]: A high-performance Open MPI point-to-point messaging module
was unable to find any relevant network interfaces:

Module: OpenFabrics (openib)
  Host: compute-0-12

Another transport will be used instead, although this may result in
lower performance.

NOTE: You can disable this warning by setting the MCA parameter
btl_base_warn_component_unused to 0.
--------------------------------------------------------------------------
[compute-0-12.local:45631] 3 more processes have sent help message help-mpi-btl-base.txt / btl:no-nics
[compute-0-12.local:45631] Set MCA parameter "orte_base_help_aggregate" to 0 to see all help / error messages

Timings for individual modules:

Sum of individual times         ...    16141.356 sec (= 269.023 min)
GTO integral calculation        ...       49.057 sec (=   0.818 min)   0.3 %
SCF iterations                  ...    10389.365 sec (= 173.156 min)  64.4 %
SCF Gradient evaluation         ...     5682.786 sec (=  94.713 min)  35.2 %
Geometry relaxation             ...       20.148 sec (=   0.336 min)   0.1 %
                             ****ORCA TERMINATED NORMALLY****
TOTAL RUN TIME: 0 days 4 hours 29 minutes 21 seconds 565 msec
