Warning: no access to tty (Bad file descriptor).
Thus no job control in this shell.

                                 *****************
                                 * O   R   C   A *
                                 *****************

           --- An Ab Initio, DFT and Semiempirical electronic structure package ---

                  #######################################################
                  #                        -***-                        #
                  #          Department of theory and spectroscopy      #
                  #               Directorship: Frank Neese             #
                  #        Max Planck Institute fuer Kohlenforschung    #
                  #                Kaiser Wilhelm Platz 1               #
                  #                 D-45470 Muelheim/Ruhr               #
                  #                      Germany                        #
                  #                                                     #
                  #                  All rights reserved                #
                  #                        -***-                        #
                  #######################################################


                         Program Version 4.2.1 -  RELEASE  -


 With contributions from (in alphabetic order):
   Daniel Aravena         : Magnetic Suceptibility
   Michael Atanasov       : Ab Initio Ligand Field Theory (pilot matlab implementation)
   Alexander A. Auer      : GIAO ZORA, VPT2
   Ute Becker             : Parallelization
   Giovanni Bistoni       : ED, misc. LED, open-shell LED, HFLD
   Martin Brehm           : Molecular dynamics
   Dmytro Bykov           : SCF Hessian
   Vijay G. Chilkuri      : MRCI spin determinant printing, contributions to CSF-ICE
   Dipayan Datta          : RHF DLPNO-CCSD density
   Achintya Kumar Dutta   : EOM-CC, STEOM-CC
   Dmitry Ganyushin       : Spin-Orbit,Spin-Spin,Magnetic field MRCI
   Miquel Garcia          : C-PCM Hessian, Gaussian charge scheme
   Yang Guo               : DLPNO-NEVPT2, CIM, IAO-localization
   Andreas Hansen         : Spin unrestricted coupled pair/coupled cluster methods
   Benjamin Helmich-Paris : CASSCF linear response (MC-RPA)
   Lee Huntington         : MR-EOM, pCC
   Robert Izsak           : Overlap fitted RIJCOSX, COSX-SCS-MP3, EOM
   Christian Kollmar      : KDIIS, OOCD, Brueckner-CCSD(T), CCSD density
   Simone Kossmann        : Meta GGA functionals, TD-DFT gradient, OOMP2, MP2 Hessian
   Martin Krupicka        : AUTO-CI
   Lucas Lang             : DCDCAS
   Dagmar Lenk            : GEPOL surface, SMD
   Dimitrios Liakos       : Extrapolation schemes; Compound Job, initial MDCI parallelization
   Dimitrios Manganas     : Further ROCIS development; embedding schemes
   Dimitrios Pantazis     : SARC Basis sets
   Taras Petrenko         : DFT Hessian,TD-DFT gradient, ASA, ECA, R-Raman, ABS, FL, XAS/XES, NRVS
   Peter Pinski           : DLPNO-MP2, DLPNO-MP2 Gradient
   Christoph Reimann      : Effective Core Potentials
   Marius Retegan         : Local ZFS, SOC
   Christoph Riplinger    : Optimizer, TS searches, QM/MM, DLPNO-CCSD(T), (RO)-DLPNO pert. Triples
   Tobias Risthaus        : Range-separated hybrids, TD-DFT gradient, RPA, STAB
   Michael Roemelt        : Original ROCIS implementation
   Masaaki Saitow         : Open-shell DLPNO-CCSD energy and density
   Barbara Sandhoefer     : DKH picture change effects
   Avijit Sen             : IP-ROCIS
   Kantharuban Sivalingam : CASSCF convergence, NEVPT2, FIC-MRCI
   Bernardo de Souza      : ESD, SOC TD-DFT
   Georgi Stoychev        : AutoAux, RI-MP2 NMR
   Willem Van den Heuvel  : Paramagnetic NMR
   Boris Wezisla          : Elementary symmetry handling
   Frank Wennmohs         : Technical directorship


 We gratefully acknowledge several colleagues who have allowed us to
 interface, adapt or use parts of their codes:
   Stefan Grimme, W. Hujo, H. Kruse,             : VdW corrections, initial TS optimization,
                  C. Bannwarth                     DFT functionals, gCP, sTDA/sTD-DF
   Ed Valeev, F. Pavosevic, A. Kumar             : LibInt (2-el integral package), F12 methods
   Garnet Chan, S. Sharma, J. Yang, R. Olivares  : DMRG
   Ulf Ekstrom                                   : XCFun DFT Library
   Mihaly Kallay                                 : mrcc  (arbitrary order and MRCC methods)
   Andreas Klamt, Michael Diedenhofen            : otool_cosmo (COSMO solvation model)
   Jiri Pittner, Ondrej Demel                    : Mk-CCSD
   Frank Weinhold                                : gennbo (NPA and NBO analysis)
   Christopher J. Cramer and Donald G. Truhlar   : smd solvation model
   Lars Goerigk                                  : TD-DFT with DH, B97 family of functionals
   V. Asgeirsson, H. Jonsson                     : NEB implementation
   FAccTs GmbH                                   : IRC, NEB, NEB-TS, Multilevel, MM, QM/MM, CI optimization
   S Lehtola, MJT Oliveira, MAL Marques          : LibXC Library


 Your calculation uses the libint2 library for the computation of 2-el integrals
 For citations please refer to: http://libint.valeyev.net

 Your ORCA version has been built with support for libXC version: 4.2.3
 For citations please refer to: https://tddft.org/programs/libxc/

 This ORCA versions uses:
   CBLAS   interface :  Fast vector & matrix operations
   LAPACKE interface :  Fast linear algebra routines
   SCALAPACK package :  Parallel linear algebra routines


Your calculation utilizes the atom-pairwise dispersion correction
with the zero-damping scheme (D30)
Cite in your paper:
S.Grimme, J.Antony, S.Ehrlich and H.Krieg, J.Chem.Phys., 132, (2010), 154104 
   

XCFun DFT library Copyright 2009-2010 Ulf Ekstrom and contributors.
See http://admol.org/xcfun for more information. This is free soft-
ware; see the source code for copying conditions. There is ABSOLUTELY
NO WARRANTY; not even for MERCHANTABILITY or FITNESS FOR A PARTICULAR
PURPOSE. For details see the documentation. Scientific users of this 
library should cite U. Ekstrom, L. Visscher, R. Bast, A. J. Thorvald-
sen and K. Ruud; J.Chem.Theor.Comp. 2010, DOI: 10.1021/ct100117s
XCFun Version 0.99 
----- Orbital basis set information -----
Your calculation utilizes the basis: def2-TZVP
   F. Weigend and R. Ahlrichs, Phys. Chem. Chem. Phys. 7, 3297 (2005).

----- AuxJ basis set information -----
Your calculation utilizes the auxiliary basis: def2/J
   F. Weigend, Phys. Chem. Chem. Phys. 8, 1057 (2006).

================================================================================
                                        WARNINGS
                       Please study these warnings very carefully!
================================================================================


WARNING: Geometry Optimization
  ===> : Switching off AutoStart
         For restart on a previous wavefunction, please use MOREAD

INFO   : the flag for use of LIBINT has been found!

================================================================================
                                       INPUT FILE
================================================================================
NAME = NDI-N.inp
|  1> # avogadro generated ORCA input file 
|  2> # Basic Mode
|  3> # 
|  4> ! wB97X-D3 OPT def2-TZVP def2/J CPCM
|  5> %cpcm
|  6>   epsilon 3
|  7> end
|  8> %pal
|  9>  nprocs 4
| 10> end 
| 11> 
| 12> * xyz 0 1
| 13>    C       -0.91528       10.43011        1.28324
| 14>    C        0.74973        8.87880        2.05632
| 15>    N       -0.67677        9.23817        2.11709
| 16>    H        0.95935        8.01456        2.72281
| 17>    H        1.37639        9.72282        2.41730
| 18>    H        1.05597        8.61798        1.01828
| 19>    H       -0.24197       11.25858        1.59341
| 20>    H       -1.94561       10.81219        1.42378
| 21>    H       -0.74225       10.21180        0.20603
| 22>    C       -1.50108        8.08394        1.69332
| 23>    C       -2.99756        8.29718        1.98344
| 24>    H       -1.18558        7.18621        2.27211
| 25>    H       -1.34614        7.86439        0.61204
| 26>    C       -3.81080        7.03825        1.62845
| 27>    H       -3.37154        9.14122        1.36991
| 28>    H       -3.10942        8.51740        3.06741
| 29>    N       -5.28741        7.07744        1.85113
| 30>    H       -3.39353        6.19712        2.22626
| 31>    H       -3.62878        6.82352        0.55124
| 32>    C       -5.99167        8.17054        2.35664
| 33>    C       -5.98039        5.91891        1.51773
| 34>    O       -5.41610        9.20094        2.66054
| 35>    O       -5.37439        4.95306        1.07425
| 36>    C       -7.39063        8.11092        2.52839
| 37>    C       -7.37662        5.83212        1.67998
| 38>    C       -8.08435        6.93543        2.18758
| 39>    C       -8.11314        9.20756        3.03544
| 40>    C       -8.08128        4.66193        1.34348
| 41>    C       -9.49562        9.13643        3.19973
| 42>    H       -7.61232       10.12864        3.30792
| 43>    C       -9.49269        6.86314        2.35494
| 44>    C       -9.46391        4.59091        1.50741
| 45>    H       -7.56606        3.79385        0.95045
| 46>    C      -10.20036        7.96663        2.86223
| 47>    H      -10.01081       10.00457        3.59266
| 48>    C      -10.18664        5.68798        2.01333
| 49>    H       -9.96482        3.66999        1.23457
| 50>    C      -11.59686        7.88106        3.02178
| 51>    C      -11.58616        5.62978        2.18188
| 52>    N      -12.29048        6.72395        2.68493
| 53>    O      -12.16228        4.60006        1.87668
| 54>    O      -12.20284        8.84747        3.46408
| 55>    C      -13.76818        6.76709        2.89887
| 56>    C      -14.58461        5.51451        2.52904
| 57>    H      -14.17746        7.61256        2.30159
| 58>    H      -13.95740        6.97792        3.97558
| 59>    C      -16.08323        5.73738        2.80046
| 60>    H      -14.22357        4.66470        3.14236
| 61>    H      -14.46115        5.29889        1.44539
| 62>    N      -16.90956        4.59130        2.35921
| 63>    H      -16.38385        6.64019        2.22157
| 64>    H      -16.25186        5.95337        3.88038
| 65>    C      -18.33366        4.96377        2.39026
| 66>    H      -18.52145        5.82912        1.71866
| 67>    H      -18.65882        5.22870        3.42145
| 68>    H      -18.96048        4.12523        2.01702
| 69>    C      -16.69918        3.39736        3.19763
| 70>    H      -17.37108        2.57408        2.87106
| 71>    H      -16.89619        3.61643        4.27056
| 72>    H      -15.66841        3.00833        3.08174
| 73> *
| 74> 
| 75> 
| 76>                          ****END OF INPUT****
================================================================================

                       *****************************
                       * Geometry Optimization Run *
                       *****************************

Geometry optimization settings:
Update method            Update   .... BFGS
Choice of coordinates    CoordSys .... Z-matrix Internals
Initial Hessian          InHess   .... Almoef's Model

Convergence Tolerances:
Energy Change            TolE     ....  5.0000e-06 Eh
Max. Gradient            TolMAXG  ....  3.0000e-04 Eh/bohr
RMS Gradient             TolRMSG  ....  1.0000e-04 Eh/bohr
Max. Displacement        TolMAXD  ....  4.0000e-03 bohr
RMS Displacement         TolRMSD  ....  2.0000e-03 bohr
Strict Convergence                ....  False
------------------------------------------------------------------------------
                        ORCA OPTIMIZATION COORDINATE SETUP
------------------------------------------------------------------------------

The optimization will be done in new redundant internal coordinates
Making redundant internal coordinates   ...  (new redundants) done
Evaluating the initial hessian          ...  (Almloef) done
Evaluating the coordinates              ...  done
Calculating the B-matrix                .... done
Calculating the G-matrix                .... done
Diagonalizing the G-matrix              .... done
Small eigenvalue found = 8.542e-04
Small eigenvalue found = 2.254e-03
Small eigenvalue found = 2.589e-03
Small eigenvalue found = 1.136e-02
Small eigenvalue found = 1.281e-02
Small eigenvalue found = 1.466e-02
Small eigenvalue found = 1.703e-02
Small eigenvalue found = 1.865e-02
Small eigenvalue found = 2.760e-02
Small eigenvalue found = 2.831e-02
The first mode is                       ....  163
The number of degrees of freedom        ....  174

    -----------------------------------------------------------------
                    Redundant Internal Coordinates


    -----------------------------------------------------------------
         Definition                    Initial Value    Approx d2E/dq
    -----------------------------------------------------------------
      1. B(N   2,C   1)                  1.4723         0.413552   
      2. B(N   2,C   0)                  1.4741         0.410894   
      3. B(H   3,C   1)                  1.1113         0.332957   
      4. B(H   4,C   1)                  1.1115         0.332782   
      5. B(H   5,C   1)                  1.1133         0.330614   
      6. B(H   6,C   0)                  1.1117         0.332487   
      7. B(H   7,C   0)                  1.1078         0.337253   
      8. B(H   8,C   0)                  1.1126         0.331355   
      9. B(C   9,N   2)                  1.4803         0.401599   
     10. B(C  10,C   9)                  1.5392         0.361179   
     11. B(H  11,C   9)                  1.1138         0.330003   
     12. B(H  12,C   9)                  1.1142         0.329504   
     13. B(C  13,C  10)                  1.5402         0.359807   
     14. B(H  14,C  10)                  1.1085         0.336489   
     15. B(H  15,C  10)                  1.1118         0.332440   
     16. B(N  16,C  13)                  1.4938         0.382152   
     17. B(H  17,C  13)                  1.1131         0.330803   
     18. B(H  18,C  13)                  1.1134         0.330459   
     19. B(C  19,N  16)                  1.3951         0.549148   
     20. B(C  20,N  16)                  1.3905         0.558512   
     21. B(O  21,C  19)                  1.2188         1.049756   
     22. B(O  22,C  20)                  1.2234         1.031882   
     23. B(C  23,C  19)                  1.4107         0.578995   
     24. B(C  24,C  20)                  1.4083         0.584169   
     25. B(C  25,C  24)                  1.4056         0.589904   
     26. B(C  25,C  23)                  1.4068         0.587333   
     27. B(C  26,C  23)                  1.4077         0.585371   
     28. B(C  27,C  24)                  1.4068         0.587374   
     29. B(C  28,C  26)                  1.3940         0.615629   
     30. B(H  29,C  26)                  1.0833         0.369126   
     31. B(C  30,C  25)                  1.4201         0.559411   
     32. B(C  31,C  27)                  1.3941         0.615401   
     33. B(H  32,C  27)                  1.0833         0.369106   
     34. B(C  33,C  30)                  1.4056         0.589905   
     35. B(C  33,C  28)                  1.4068         0.587470   
     36. B(H  34,C  28)                  1.0833         0.369109   
     37. B(C  35,C  31)                  1.4078         0.585282   
     38. B(C  35,C  30)                  1.4069         0.587265   
     39. B(H  36,C  31)                  1.0833         0.369131   
     40. B(C  37,C  33)                  1.4082         0.584416   
     41. B(C  38,C  35)                  1.4108         0.578761   
     42. B(N  39,C  38)                  1.3951         0.549189   
     43. B(N  39,C  37)                  1.3905         0.558578   
     44. B(O  40,C  38)                  1.2188         1.049717   
     45. B(O  41,C  37)                  1.2234         1.031862   
     46. B(C  42,N  39)                  1.4937         0.382280   
     47. B(C  43,C  42)                  1.5402         0.359804   
     48. B(H  44,C  42)                  1.1131         0.330758   
     49. B(H  45,C  42)                  1.1134         0.330493   
     50. B(C  46,C  43)                  1.5392         0.361132   
     51. B(H  47,C  43)                  1.1085         0.336487   
     52. B(H  48,C  43)                  1.1118         0.332423   
     53. B(N  49,C  46)                  1.4802         0.401745   
     54. B(H  50,C  46)                  1.1138         0.329952   
     55. B(H  51,C  46)                  1.1141         0.329537   
     56. B(C  52,N  49)                  1.4723         0.413544   
     57. B(H  53,C  52)                  1.1114         0.332912   
     58. B(H  54,C  52)                  1.1132         0.330651   
     59. B(H  55,C  52)                  1.1115         0.332792   
     60. B(C  56,N  49)                  1.4740         0.411004   
     61. B(H  57,C  56)                  1.1117         0.332502   
     62. B(H  58,C  56)                  1.1126         0.331353   
     63. B(H  59,C  56)                  1.1078         0.337283   
     64. A(H   6,C   0,H   8)          108.7928         0.283530   
     65. A(N   2,C   0,H   8)          111.3364         0.323019   
     66. A(N   2,C   0,H   6)          110.2894         0.323199   
     67. A(N   2,C   0,H   7)          110.9526         0.323955   
     68. A(H   7,C   0,H   8)          109.5798         0.284157   
     69. A(H   6,C   0,H   7)          105.7157         0.284308   
     70. A(N   2,C   1,H   5)          111.2350         0.323242   
     71. A(H   3,C   1,H   5)          108.9729         0.283493   
     72. A(N   2,C   1,H   3)          110.3534         0.323616   
     73. A(H   4,C   1,H   5)          109.0047         0.283470   
     74. A(H   3,C   1,H   4)          106.8227         0.283781   
     75. A(N   2,C   1,H   4)          110.3349         0.323588   
     76. A(C   1,N   2,C   9)          109.7177         0.369695   
     77. A(C   0,N   2,C   9)          112.2375         0.369286   
     78. A(C   0,N   2,C   1)          109.3164         0.371152   
     79. A(H  11,C   9,H  12)          107.8248         0.282954   
     80. A(C  10,C   9,H  12)          110.2080         0.317882   
     81. A(N   2,C   9,H  12)          110.7340         0.321515   
     82. A(N   2,C   9,H  11)          108.7824         0.321595   
     83. A(C  10,C   9,H  11)          106.8060         0.317960   
     84. A(N   2,C   9,C  10)          112.2976         0.363481   
     85. A(H  14,C  10,H  15)          110.7865         0.284202   
     86. A(C   9,C  10,H  14)          109.2196         0.318971   
     87. A(C  13,C  10,H  14)          108.4621         0.318773   
     88. A(C   9,C  10,H  15)          108.0017         0.318342   
     89. A(C  13,C  10,H  15)          109.4814         0.318145   
     90. A(C   9,C  10,C  13)          110.8958         0.358960   
     91. A(N  16,C  13,H  17)          108.0784         0.319122   
     92. A(C  10,C  13,H  17)          107.2140         0.317889   
     93. A(C  10,C  13,H  18)          107.1163         0.317835   
     94. A(C  10,C  13,N  16)          117.7826         0.360181   
     95. A(H  17,C  13,H  18)          108.2156         0.283187   
     96. A(N  16,C  13,H  18)          108.1125         0.319068   
     97. A(C  19,N  16,C  20)          119.2154         0.411501   
     98. A(C  13,N  16,C  20)          115.7864         0.386093   
     99. A(C  13,N  16,C  19)          124.9982         0.384959   
    100. A(O  21,C  19,C  23)          118.2745         0.468621   
    101. A(N  16,C  19,C  23)          120.7698         0.416838   
    102. A(N  16,C  19,O  21)          120.9557         0.461014   
    103. A(O  22,C  20,C  24)          118.9596         0.467911   
    104. A(N  16,C  20,C  24)          121.1853         0.418758   
    105. A(N  16,C  20,O  22)          119.8551         0.460992   
    106. A(C  25,C  23,C  26)          119.0176         0.425459   
    107. A(C  19,C  23,C  26)          121.3248         0.424372   
    108. A(C  19,C  23,C  25)          119.6576         0.424626   
    109. A(C  25,C  24,C  27)          119.1485         0.426052   
    110. A(C  20,C  24,C  27)          121.3525         0.425308   
    111. A(C  20,C  24,C  25)          119.4990         0.425635   
    112. A(C  24,C  25,C  30)          120.1276         0.422352   
    113. A(C  23,C  25,C  30)          120.1995         0.422022   
    114. A(C  23,C  25,C  24)          119.6729         0.426047   
    115. A(C  28,C  26,H  29)          118.1797         0.353967   
    116. A(C  23,C  26,H  29)          121.0438         0.350962   
    117. A(C  23,C  26,C  28)          120.7765         0.429061   
    118. A(C  31,C  27,H  32)          118.2638         0.353942   
    119. A(C  24,C  27,H  32)          121.0051         0.351161   
    120. A(C  24,C  27,C  31)          120.7311         0.429296   
    121. A(C  33,C  28,H  34)          121.0094         0.351171   
    122. A(C  26,C  28,H  34)          118.2620         0.353964   
    123. A(C  26,C  28,C  33)          120.7285         0.429337   
    124. A(C  25,C  30,C  35)          120.2042         0.422013   
    125. A(C  25,C  30,C  33)          120.1227         0.422352   
    126. A(C  33,C  30,C  35)          119.6731         0.426038   
    127. A(C  35,C  31,H  36)          121.0393         0.350954   
    128. A(C  27,C  31,H  36)          118.1831         0.353946   
    129. A(C  27,C  31,C  35)          120.7776         0.429021   
    130. A(C  28,C  33,C  30)          119.1552         0.426065   
    131. A(C  30,C  33,C  37)          119.5022         0.425668   
    132. A(C  28,C  33,C  37)          121.3426         0.425352   
    133. A(C  31,C  35,C  38)          121.3356         0.424330   
    134. A(C  30,C  35,C  38)          119.6535         0.424586   
    135. A(C  30,C  35,C  31)          119.0108         0.425439   
    136. A(N  39,C  37,O  41)          119.8571         0.461000   
    137. A(C  33,C  37,O  41)          118.9575         0.467945   
    138. A(C  33,C  37,N  39)          121.1854         0.418799   
    139. A(N  39,C  38,O  40)          120.9498         0.461017   
    140. A(C  35,C  38,O  40)          118.2848         0.468583   
    141. A(C  35,C  38,N  39)          120.7654         0.416813   
    142. A(C  38,N  39,C  42)          125.0105         0.384986   
    143. A(C  37,N  39,C  42)          115.7691         0.386124   
    144. A(C  37,N  39,C  38)          119.2203         0.411515   
    145. A(H  44,C  42,H  45)          108.2156         0.283186   
    146. A(C  43,C  42,H  45)          107.2249         0.317840   
    147. A(N  39,C  42,H  45)          108.1865         0.319091   
    148. A(C  43,C  42,H  44)          107.0948         0.317881   
    149. A(N  39,C  42,H  44)          107.9882         0.319132   
    150. A(N  39,C  42,C  43)          117.8078         0.360201   
    151. A(H  47,C  43,H  48)          110.7600         0.284199   
    152. A(C  46,C  43,H  48)          107.9434         0.318333   
    153. A(C  42,C  43,H  48)          109.4450         0.318141   
    154. A(C  46,C  43,H  47)          109.3028         0.318964   
    155. A(C  42,C  43,H  47)          108.5403         0.318772   
    156. A(C  42,C  43,C  46)          110.8545         0.358951   
    157. A(H  50,C  46,H  51)          107.8056         0.282952   
    158. A(N  49,C  46,H  51)          110.7659         0.321539   
    159. A(C  43,C  46,H  51)          110.2643         0.317880   
    160. A(N  49,C  46,H  50)          108.7831         0.321605   
    161. A(C  43,C  46,H  50)          106.7682         0.317946   
    162. A(C  43,C  46,N  49)          112.2625         0.363496   
    163. A(C  52,N  49,C  56)          109.3275         0.371168   
    164. A(C  46,N  49,C  56)          112.2047         0.369325   
    165. A(C  46,N  49,C  52)          109.7431         0.369717   
    166. A(H  54,C  52,H  55)          109.0191         0.283476   
    167. A(H  53,C  52,H  55)          106.8109         0.283777   
    168. A(N  49,C  52,H  55)          110.3370         0.323589   
    169. A(H  53,C  52,H  54)          108.9723         0.283492   
    170. A(N  49,C  52,H  54)          111.2391         0.323246   
    171. A(N  49,C  52,H  53)          110.3449         0.323608   
    172. A(H  58,C  56,H  59)          109.5584         0.284161   
    173. A(H  57,C  56,H  59)          105.7573         0.284314   
    174. A(N  49,C  56,H  59)          110.9615         0.323974   
    175. A(H  57,C  56,H  58)          108.7878         0.283532   
    176. A(N  49,C  56,H  58)          111.3305         0.323032   
    177. A(N  49,C  56,H  57)          110.2731         0.323216   
    178. D(C   0,N   2,C   1,H   3)    176.9492         0.014587   
    179. D(C   0,N   2,C   1,H   5)    -61.9742         0.014587   
    180. D(C   9,N   2,C   0,H   7)     66.2612         0.014402   
    181. D(C   9,N   2,C   1,H   4)   -177.3915         0.014587   
    182. D(C   9,N   2,C   1,H   3)    -59.5723         0.014587   
    183. D(C   9,N   2,C   0,H   6)   -176.9442         0.014402   
    184. D(C   1,N   2,C   0,H   6)    -54.9693         0.014402   
    185. D(C   0,N   2,C   1,H   4)     59.1300         0.014587   
    186. D(C   9,N   2,C   0,H   8)    -56.0710         0.014402   
    187. D(C   1,N   2,C   0,H   8)     65.9040         0.014402   
    188. D(C   1,N   2,C   0,H   7)   -171.7639         0.014402   
    189. D(C   9,N   2,C   1,H   5)     61.5042         0.014587   
    190. D(C  10,C   9,N   2,C   0)    -69.0435         0.013768   
    191. D(C  10,C   9,N   2,C   1)    169.2104         0.013768   
    192. D(H  11,C   9,N   2,C   0)    172.9521         0.013768   
    193. D(H  12,C   9,N   2,C   0)     54.6283         0.013768   
    194. D(H  11,C   9,N   2,C   1)     51.2061         0.013768   
    195. D(H  12,C   9,N   2,C   1)    -67.1177         0.013768   
    196. D(H  15,C  10,C   9,H  11)     63.3843         0.010461   
    197. D(H  14,C  10,C   9,H  12)    -59.1876         0.010461   
    198. D(H  15,C  10,C   9,N   2)    -55.7843         0.010461   
    199. D(H  14,C  10,C   9,H  11)   -176.0541         0.010461   
    200. D(H  15,C  10,C   9,H  12)   -179.7492         0.010461   
    201. D(C  13,C  10,C   9,H  12)     60.2895         0.010461   
    202. D(H  14,C  10,C   9,N   2)     64.7773         0.010461   
    203. D(C  13,C  10,C   9,N   2)   -175.7456         0.010461   
    204. D(C  13,C  10,C   9,H  11)    -56.5770         0.010461   
    205. D(H  17,C  13,C  10,C   9)     57.9551         0.010387   
    206. D(N  16,C  13,C  10,H  15)     60.9151         0.010387   
    207. D(N  16,C  13,C  10,C   9)    179.9896         0.010387   
    208. D(N  16,C  13,C  10,H  14)    -60.0802         0.010387   
    209. D(H  17,C  13,C  10,H  14)    177.8854         0.010387   
    210. D(H  18,C  13,C  10,H  15)   -177.0847         0.010387   
    211. D(H  18,C  13,C  10,C   9)    -58.0102         0.010387   
    212. D(H  18,C  13,C  10,H  14)     61.9200         0.010387   
    213. D(H  17,C  13,C  10,H  15)    -61.1193         0.010387   
    214. D(C  20,N  16,C  13,H  18)     58.5573         0.012500   
    215. D(C  20,N  16,C  13,H  17)    -58.3627         0.012500   
    216. D(C  20,N  16,C  13,C  10)   -179.9538         0.012500   
    217. D(C  19,N  16,C  13,H  17)    121.6587         0.012500   
    218. D(C  19,N  16,C  13,C  10)      0.0675         0.012500   
    219. D(C  19,N  16,C  13,H  18)   -121.4214         0.012500   
    220. D(C  23,C  19,N  16,C  20)     -0.1213         0.024032   
    221. D(C  23,C  19,N  16,C  13)    179.8567         0.024032   
    222. D(O  21,C  19,N  16,C  20)    179.9164         0.024032   
    223. D(O  21,C  19,N  16,C  13)     -0.1056         0.024032   
    224. D(C  24,C  20,N  16,C  19)      0.0784         0.024905   
    225. D(C  24,C  20,N  16,C  13)   -179.9016         0.024905   
    226. D(O  22,C  20,N  16,C  19)   -179.9551         0.024905   
    227. D(O  22,C  20,N  16,C  13)      0.0649         0.024905   
    228. D(C  26,C  23,C  19,O  21)      0.0656         0.023028   
    229. D(C  26,C  23,C  19,N  16)   -179.8977         0.023028   
    230. D(C  25,C  23,C  19,O  21)   -179.9679         0.023028   
    231. D(C  25,C  23,C  19,N  16)      0.0689         0.023028   
    232. D(C  27,C  24,C  20,O  22)      0.0155         0.023461   
    233. D(C  27,C  24,C  20,N  16)    179.9823         0.023461   
    234. D(C  25,C  24,C  20,O  22)   -179.9498         0.023461   
    235. D(C  25,C  24,C  20,N  16)      0.0169         0.023461   
    236. D(C  23,C  25,C  24,C  20)     -0.0699         0.023947   
    237. D(C  30,C  25,C  23,C  26)      0.0099         0.023729   
    238. D(C  30,C  25,C  23,C  19)   -179.9575         0.023729   
    239. D(C  24,C  25,C  23,C  26)    179.9951         0.023729   
    240. D(C  24,C  25,C  23,C  19)      0.0277         0.023729   
    241. D(C  30,C  25,C  24,C  27)     -0.0508         0.023947   
    242. D(C  30,C  25,C  24,C  20)    179.9153         0.023947   
    243. D(C  23,C  25,C  24,C  27)    179.9640         0.023947   
    244. D(H  29,C  26,C  23,C  25)   -179.9729         0.023563   
    245. D(H  29,C  26,C  23,C  19)     -0.0061         0.023563   
    246. D(C  28,C  26,C  23,C  25)     -0.0070         0.023563   
    247. D(C  28,C  26,C  23,C  19)    179.9597         0.023563   
    248. D(H  32,C  27,C  24,C  25)   -179.9670         0.023732   
    249. D(H  32,C  27,C  24,C  20)      0.0675         0.023732   
    250. D(C  31,C  27,C  24,C  25)      0.0669         0.023732   
    251. D(C  31,C  27,C  24,C  20)   -179.8985         0.023732   
    252. D(H  34,C  28,C  26,H  29)      0.0024         0.026203   
    253. D(H  34,C  28,C  26,C  23)   -179.9644         0.026203   
    254. D(C  33,C  28,C  26,H  29)    179.9597         0.026203   
    255. D(C  33,C  28,C  26,C  23)     -0.0071         0.026203   
    256. D(C  35,C  30,C  25,C  24)     -0.0269         0.021434   
    257. D(C  35,C  30,C  25,C  23)    179.9582         0.021434   
    258. D(C  33,C  30,C  25,C  24)   -179.9839         0.021434   
    259. D(C  33,C  30,C  25,C  23)      0.0013         0.021434   
    260. D(H  36,C  31,C  27,H  32)     -0.0026         0.026183   
    261. D(H  36,C  31,C  27,C  24)    179.9643         0.026183   
    262. D(C  35,C  31,C  27,H  32)   -179.9718         0.026183   
    263. D(C  35,C  31,C  27,C  24)     -0.0048         0.026183   
    264. D(C  37,C  33,C  30,C  35)     -0.0113         0.023947   
    265. D(C  37,C  33,C  30,C  25)    179.9458         0.023947   
    266. D(C  28,C  33,C  30,C  35)   -179.9724         0.023947   
    267. D(C  28,C  33,C  30,C  25)     -0.0152         0.023947   
    268. D(C  37,C  33,C  28,H  34)      0.0140         0.023740   
    269. D(C  37,C  33,C  28,C  26)   -179.9421         0.023740   
    270. D(C  30,C  33,C  28,H  34)    179.9744         0.023740   
    271. D(C  30,C  33,C  28,C  26)      0.0182         0.023740   
    272. D(C  38,C  35,C  31,H  36)     -0.0768         0.023555   
    273. D(C  38,C  35,C  31,C  27)    179.8915         0.023555   
    274. D(C  30,C  35,C  31,H  36)    179.9587         0.023555   
    275. D(C  30,C  35,C  31,C  27)     -0.0730         0.023555   
    276. D(C  38,C  35,C  30,C  33)      0.0803         0.023723   
    277. D(C  38,C  35,C  30,C  25)   -179.8768         0.023723   
    278. D(C  31,C  35,C  30,C  33)   -179.9546         0.023723   
    279. D(C  31,C  35,C  30,C  25)      0.0883         0.023723   
    280. D(O  41,C  37,C  33,C  30)   -179.9958         0.023482   
    281. D(O  41,C  37,C  33,C  28)     -0.0356         0.023482   
    282. D(N  39,C  37,C  33,C  30)     -0.0737         0.023482   
    283. D(N  39,C  37,C  33,C  28)    179.8865         0.023482   
    284. D(O  40,C  38,C  35,C  31)     -0.0401         0.023009   
    285. D(O  40,C  38,C  35,C  30)    179.9241         0.023009   
    286. D(N  39,C  38,C  35,C  31)    179.9685         0.023009   
    287. D(N  39,C  38,C  35,C  30)     -0.0673         0.023009   
    288. D(C  42,N  39,C  38,O  40)     -0.1201         0.024035   
    289. D(C  42,N  39,C  38,C  35)    179.8711         0.024035   
    290. D(C  37,N  39,C  38,O  40)    179.9926         0.024035   
    291. D(C  37,N  39,C  38,C  35)     -0.0163         0.024035   
    292. D(C  42,N  39,C  37,O  41)      0.1111         0.024911   
    293. D(C  42,N  39,C  37,C  33)   -179.8103         0.024911   
    294. D(C  38,N  39,C  37,O  41)   -179.9913         0.024911   
    295. D(C  38,N  39,C  37,C  33)      0.0873         0.024911   
    296. D(H  45,C  42,N  39,C  38)    121.2750         0.012508   
    297. D(H  45,C  42,N  39,C  37)    -58.8342         0.012508   
    298. D(H  44,C  42,N  39,C  38)   -121.8138         0.012508   
    299. D(H  44,C  42,N  39,C  37)     58.0770         0.012508   
    300. D(C  43,C  42,N  39,C  38)     -0.4374         0.012508   
    301. D(C  43,C  42,N  39,C  37)    179.4535         0.012508   
    302. D(C  46,C  43,C  42,H  45)     58.3137         0.010387   
    303. D(C  46,C  43,C  42,H  44)    -57.6465         0.010387   
    304. D(C  46,C  43,C  42,N  39)   -179.4818         0.010387   
    305. D(H  48,C  43,C  42,H  45)    177.2677         0.010387   
    306. D(H  48,C  43,C  42,H  44)     61.3075         0.010387   
    307. D(H  48,C  43,C  42,N  39)    -60.5279         0.010387   
    308. D(H  47,C  43,C  42,H  45)    -61.7433         0.010387   
    309. D(H  47,C  43,C  42,H  44)   -177.7035         0.010387   
    310. D(H  47,C  43,C  42,N  39)     60.4611         0.010387   
    311. D(H  51,C  46,C  43,H  48)    179.7786         0.010458   
    312. D(H  51,C  46,C  43,H  47)     59.2354         0.010458   
    313. D(H  51,C  46,C  43,C  42)    -60.3658         0.010458   
    314. D(H  50,C  46,C  43,H  48)    -63.3695         0.010458   
    315. D(H  50,C  46,C  43,H  47)    176.0872         0.010458   
    316. D(H  50,C  46,C  43,C  42)     56.4861         0.010458   
    317. D(N  49,C  46,C  43,H  48)     55.7557         0.010458   
    318. D(N  49,C  46,C  43,H  47)    -64.7876         0.010458   
    319. D(N  49,C  46,C  43,C  42)    175.6113         0.010458   
    320. D(C  56,N  49,C  46,H  51)    -54.1757         0.013778   
    321. D(C  56,N  49,C  46,H  50)   -172.4954         0.013778   
    322. D(C  56,N  49,C  46,C  43)     69.5677         0.013778   
    323. D(C  52,N  49,C  46,H  51)     67.5803         0.013778   
    324. D(C  52,N  49,C  46,H  50)    -50.7393         0.013778   
    325. D(C  52,N  49,C  46,C  43)   -168.6762         0.013778   
    326. D(H  55,C  52,N  49,C  56)    -59.0827         0.014586   
    327. D(H  55,C  52,N  49,C  46)    177.4557         0.014586   
    328. D(H  54,C  52,N  49,C  56)     62.0438         0.014586   
    329. D(H  54,C  52,N  49,C  46)    -61.4179         0.014586   
    330. D(H  53,C  52,N  49,C  56)   -176.8835         0.014586   
    331. D(H  53,C  52,N  49,C  46)     59.6549         0.014586   
    332. D(H  59,C  56,N  49,C  52)    171.9987         0.014410   
    333. D(H  59,C  56,N  49,C  46)    -66.0081         0.014410   
    334. D(H  58,C  56,N  49,C  52)    -65.6945         0.014410   
    335. D(H  58,C  56,N  49,C  46)     56.2987         0.014410   
    336. D(H  57,C  56,N  49,C  52)     55.1574         0.014410   
    337. D(H  57,C  56,N  49,C  46)    177.1506         0.014410   
    -----------------------------------------------------------------

Number of atoms                         .... 60
Number of degrees of freedom            .... 337

         *************************************************************
         *                GEOMETRY OPTIMIZATION CYCLE   1            *
         *************************************************************
---------------------------------
CARTESIAN COORDINATES (ANGSTROEM)
---------------------------------
  C     -0.915280   10.430110    1.283240
  C      0.749730    8.878800    2.056320
  N     -0.676770    9.238170    2.117090
  H      0.959350    8.014560    2.722810
  H      1.376390    9.722820    2.417300
  H      1.055970    8.617980    1.018280
  H     -0.241970   11.258580    1.593410
  H     -1.945610   10.812190    1.423780
  H     -0.742250   10.211800    0.206030
  C     -1.501080    8.083940    1.693320
  C     -2.997560    8.297180    1.983440
  H     -1.185580    7.186210    2.272110
  H     -1.346140    7.864390    0.612040
  C     -3.810800    7.038250    1.628450
  H     -3.371540    9.141220    1.369910
  H     -3.109420    8.517400    3.067410
  N     -5.287410    7.077440    1.851130
  H     -3.393530    6.197120    2.226260
  H     -3.628780    6.823520    0.551240
  C     -5.991670    8.170540    2.356640
  C     -5.980390    5.918910    1.517730
  O     -5.416100    9.200940    2.660540
  O     -5.374390    4.953060    1.074250
  C     -7.390630    8.110920    2.528390
  C     -7.376620    5.832120    1.679980
  C     -8.084350    6.935430    2.187580
  C     -8.113140    9.207560    3.035440
  C     -8.081280    4.661930    1.343480
  C     -9.495620    9.136430    3.199730
  H     -7.612320   10.128640    3.307920
  C     -9.492690    6.863140    2.354940
  C     -9.463910    4.590910    1.507410
  H     -7.566060    3.793850    0.950450
  C    -10.200360    7.966630    2.862230
  H    -10.010810   10.004570    3.592660
  C    -10.186640    5.687980    2.013330
  H     -9.964820    3.669990    1.234570
  C    -11.596860    7.881060    3.021780
  C    -11.586160    5.629780    2.181880
  N    -12.290480    6.723950    2.684930
  O    -12.162280    4.600060    1.876680
  O    -12.202840    8.847470    3.464080
  C    -13.768180    6.767090    2.898870
  C    -14.584610    5.514510    2.529040
  H    -14.177460    7.612560    2.301590
  H    -13.957400    6.977920    3.975580
  C    -16.083230    5.737380    2.800460
  H    -14.223570    4.664700    3.142360
  H    -14.461150    5.298890    1.445390
  N    -16.909560    4.591300    2.359210
  H    -16.383850    6.640190    2.221570
  H    -16.251860    5.953370    3.880380
  C    -18.333660    4.963770    2.390260
  H    -18.521450    5.829120    1.718660
  H    -18.658820    5.228700    3.421450
  H    -18.960480    4.125230    2.017020
  C    -16.699180    3.397360    3.197630
  H    -17.371080    2.574080    2.871060
  H    -16.896190    3.616430    4.270560
  H    -15.668410    3.008330    3.081740

----------------------------
CARTESIAN COORDINATES (A.U.)
----------------------------
  NO LB      ZA    FRAG     MASS         X           Y           Z
   0 C     6.0000    0    12.011   -1.729629   19.710051    2.424972
   1 C     6.0000    0    12.011    1.416784   16.778500    3.885882
   2 N     7.0000    0    14.007   -1.278910   17.457611    4.000720
   3 H     1.0000    0     1.008    1.812909   15.145323    5.145365
   4 H     1.0000    0     1.008    2.601000   18.373467    4.568035
   5 H     1.0000    0     1.008    1.995494   16.285622    1.924270
   6 H     1.0000    0     1.008   -0.457257   21.275633    3.011109
   7 H     1.0000    0     1.008   -3.676670   20.432078    2.690554
   8 H     1.0000    0     1.008   -1.402649   19.297505    0.389340
   9 C     6.0000    0    12.011   -2.836630   15.276433    3.199911
  10 C     6.0000    0    12.011   -5.664567   15.679398    3.748158
  11 H     1.0000    0     1.008   -2.240422   13.579969    4.293666
  12 H     1.0000    0     1.008   -2.543836   14.861543    1.156588
  13 C     6.0000    0    12.011   -7.201368   13.300365    3.077325
  14 H     1.0000    0     1.008   -6.371287   17.274402    2.588755
  15 H     1.0000    0     1.008   -5.875952   16.095553    5.796565
  16 N     7.0000    0    14.007   -9.991757   13.374423    3.498129
  17 H     1.0000    0     1.008   -6.412842   11.710860    4.207022
  18 H     1.0000    0     1.008   -6.857400   12.894584    1.041693
  19 C     6.0000    0    12.011  -11.322615   15.440083    4.453404
  20 C     6.0000    0    12.011  -11.301299   11.185119    2.868094
  21 O     8.0000    0    15.999  -10.234946   17.387257    5.027692
  22 O     8.0000    0    15.999  -10.156125    9.359927    2.030038
  23 C     6.0000    0    12.011  -13.966267   15.327417    4.777965
  24 C     6.0000    0    12.011  -13.939792   11.021110    3.174702
  25 C     6.0000    0    12.011  -15.277207   13.106063    4.133927
  26 C     6.0000    0    12.011  -15.331613   17.399767    5.736150
  27 C     6.0000    0    12.011  -15.271406    8.809771    2.538809
  28 C     6.0000    0    12.011  -17.944121   17.265351    6.046613
  29 H     1.0000    0     1.008  -14.385200   19.140356    6.251063
  30 C     6.0000    0    12.011  -17.938584   12.969455    4.450192
  31 C     6.0000    0    12.011  -17.884198    8.675563    2.848592
  32 H     1.0000    0     1.008  -14.297781    7.169337    1.796090
  33 C     6.0000    0    12.011  -19.275887   15.054749    5.408831
  34 H     1.0000    0     1.008  -18.917689   18.905897    6.789143
  35 C     6.0000    0    12.011  -19.249960   10.748724    3.804642
  36 H     1.0000    0     1.008  -18.830781    6.935276    2.332999
  37 C     6.0000    0    12.011  -21.914889   14.893045    5.710337
  38 C     6.0000    0    12.011  -21.894669   10.638742    4.123156
  39 N     7.0000    0    14.007  -23.225641   12.706424    5.073782
  40 O     8.0000    0    15.999  -22.983378    8.692854    3.546411
  41 O     8.0000    0    15.999  -23.060026   16.719295    6.546163
  42 C     6.0000    0    12.011  -26.018090   12.787947    5.478070
  43 C     6.0000    0    12.011  -27.560919   10.420914    4.779193
  44 H     1.0000    0     1.008  -26.791517   14.385654    4.349375
  45 H     1.0000    0     1.008  -26.375664   13.186358    7.512757
  46 C     6.0000    0    12.011  -30.392900   10.842077    5.292102
  47 H     1.0000    0     1.008  -26.878652    8.815005    5.938200
  48 H     1.0000    0     1.008  -27.327613   10.013451    2.731391
  49 N     7.0000    0    14.007  -31.954437    8.676300    4.458261
  50 H     1.0000    0     1.008  -30.960990   12.548141    4.198159
  51 H     1.0000    0     1.008  -30.711565   11.250239    7.332855
  52 C     6.0000    0    12.011  -34.645596    9.380166    4.516937
  53 H     1.0000    0     1.008  -35.000468   11.015440    3.247797
  54 H     1.0000    0     1.008  -35.260060    9.880811    6.465603
  55 H     1.0000    0     1.008  -35.830115    7.795555    3.811615
  56 C     6.0000    0    12.011  -31.556877    6.420080    6.042645
  57 H     1.0000    0     1.008  -32.826584    4.864306    5.425517
  58 H     1.0000    0     1.008  -31.929172    6.834062    8.070189
  59 H     1.0000    0     1.008  -29.609004    5.684920    5.823645

--------------------------------
INTERNAL COORDINATES (ANGSTROEM)
--------------------------------
 C      0   0   0     0.000000000000     0.00000000     0.00000000
 C      1   0   0     2.403429570967     0.00000000     0.00000000
 N      2   1   0     1.472325385165    35.36602543     0.00000000
 H      2   1   3     1.111332642416   145.64131076   354.92764321
 H      2   1   3     1.111476079995    90.28150718   233.59577060
 H      2   1   3     1.113255160150    92.39943423   124.56099828
 H      1   2   3     1.111716837104    88.37778512   129.79442683
 H      1   2   3     1.107843186963   145.69989435    13.73299145
 H      1   2   3     1.112645505586    94.41820124   238.52077349
 C      3   2   1     1.480309049456   109.71765129   123.47847607
 C     10   3   2     1.539185921973   112.29759392   169.21041135
 H     10   3   2     1.113758172585   108.78244493    51.20607297
 H     10   3   2     1.114170114704   110.73397920   292.88225422
 C     11  10   3     1.540221394021   110.89584252   184.25444661
 H     11  10   3     1.108460023140   109.21960914    64.77734297
 H     11  10   3     1.111755579658   108.00168684   304.21572402
 N     14  11  10     1.493820380970   117.78262378   179.98962598
 H     14  11  10     1.113099602866   107.21395310    57.95514975
 H     14  11  10     1.113382969782   107.11628974   301.98978154
 C     17  14  11     1.395130860421   124.99820958     0.06749368
 C     17  14  11     1.390528173501   115.78637182   180.04616898
 O     20  17  14     1.218753541492   120.95574141   359.89438886
 O     21  17  14     1.223428270435   119.85507901     0.06488964
 C     20  17  14     1.410723817230   120.76977432   179.85666273
 C     21  17  14     1.408302446032   121.18529319   180.09844466
 C     25  21  17     1.405643080231   119.49895203     0.00000000
 C     24  20  17     1.407742764925   121.32481764   180.10232723
 C     25  21  17     1.406812923491   121.35248980   179.98227235
 C     27  24  20     1.394023540476   120.77649347   179.95973958
 H     27  24  20     1.083260997729   121.04375208     0.00000000
 C     26  25  21     1.420090408847   120.12761898   179.91533345
 C     28  25  21     1.394124313754   120.73108963   180.10147185
 H     28  25  21     1.083276103170   121.00514362     0.06750921
 C     31  26  25     1.405642256444   120.12268072   180.01614881
 H     29  27  24     1.083273640684   118.26202950   180.03556326
 C     31  26  25     1.406863540007   120.20424171   359.97305698
 H     32  28  25     1.083257190191   118.18305635   179.96434008
 C     34  31  26     1.408187017906   119.50222516   179.94581264
 C     36  31  26     1.410833999059   119.65352751   180.12322423
 N     38  34  31     1.390496378636   121.18536078   359.92627407
 O     39  36  31     1.218763542612   118.28478023   179.92412114
 O     38  34  31     1.223433422177   118.95754063   180.00417990
 C     40  38  34     1.493729785872   115.76913796   180.18971455
 C     43  40  38     1.540223629932   117.80775474   179.45346876
 H     43  40  38     1.113136576391   107.98819542    58.07702760
 H     43  40  38     1.113354355720   108.18651572   301.16583074
 C     44  43  40     1.539221152954   110.85452256   180.51815561
 H     44  43  40     1.108462150955   108.54032000    60.46113252
 H     44  43  40     1.111769615748   109.44495531   299.47214336
 N     47  44  43     1.480210187034   112.26254737   175.61126051
 H     47  44  43     1.113800661070   106.76823935    56.48606340
 H     47  44  43     1.114143152113   110.26429255   299.63418322
 C     50  47  44     1.472331081449   109.74310969   191.32377190
 H     53  50  47     1.111369545471   110.34493100    59.65485739
 H     53  50  47     1.113224930820   111.23906372   298.58214685
 H     53  50  47     1.111467832013   110.33703271   177.45568309
 C     50  47  44     1.474008332541   112.20469895    69.56769966
 H     57  50  47     1.111704786938   110.27314067   177.15064376
 H     57  50  47     1.112647019454   111.33045182    56.29866904
 H     57  50  47     1.107818408359   110.96153116   293.99185832

---------------------------
INTERNAL COORDINATES (A.U.)
---------------------------
 C      0   0   0     0.000000000000     0.00000000     0.00000000
 C      1   0   0     4.541823671296     0.00000000     0.00000000
 N      2   1   0     2.782291757981    35.36602543     0.00000000
 H      2   1   3     2.100114337854   145.64131076   354.92764321
 H      2   1   3     2.100385395594    90.28150718   233.59577060
 H      2   1   3     2.103747369858    92.39943423   124.56099828
 H      1   2   3     2.100840360595    88.37778512   129.79442683
 H      1   2   3     2.093520222690   145.69989435    13.73299145
 H      1   2   3     2.102595289695    94.41820124   238.52077349
 C      3   2   1     2.797378697036   109.71765129   123.47847607
 C     10   3   2     2.908639861716   112.29759392   169.21041135
 H     10   3   2     2.104697925602   108.78244493    51.20607297
 H     10   3   2     2.105476383391   110.73397920   292.88225422
 C     11  10   3     2.910596620306   110.89584252   184.25444661
 H     11  10   3     2.094685874135   109.21960914    64.77734297
 H     11  10   3     2.100913573412   108.00168684   304.21572402
 N     14  11  10     2.822911413302   117.78262378   179.98962598
 H     14  11  10     2.103453409193   107.21395310    57.95514975
 H     14  11  10     2.103988895059   107.11628974   301.98978154
 C     17  14  11     2.636415247178   124.99820958     0.06749368
 C     17  14  11     2.627717429419   115.78637182   180.04616898
 O     20  17  14     2.303110418167   120.95574141   359.89438886
 O     21  17  14     2.311944375619   119.85507901     0.06488964
 C     20  17  14     2.665881665165   120.76977432   179.85666273
 C     21  17  14     2.661305936732   121.18529319   180.09844466
 C     25  21  17     2.656280463677   119.49895203     0.00000000
 C     24  20  17     2.660248292718   121.32481764   180.10232723
 C     25  21  17     2.658491147058   121.35248980   179.98227235
 C     27  24  20     2.634322715738   120.77649347   179.95973958
 H     27  24  20     2.047066617265   121.04375208     0.00000000
 C     26  25  21     2.683581958130   120.12761898   179.91533345
 C     28  25  21     2.634513149636   120.73108963   180.10147185
 H     28  25  21     2.047095162413   121.00514362     0.06750921
 C     31  26  25     2.656278906946   120.12268072   180.01614881
 H     29  27  24     2.047090508988   118.26202950   180.03556326
 C     31  26  25     2.658586798412   120.20424171   359.97305698
 H     32  28  25     2.047059422062   118.18305635   179.96434008
 C     34  31  26     2.661087809186   119.50222516   179.94581264
 C     36  31  26     2.666089878646   119.65352751   180.12322423
 N     38  34  31     2.627657345831   121.18536078   359.92627407
 O     39  36  31     2.303129317544   118.28478023   179.92412114
 O     38  34  31     2.311954111001   118.95754063   180.00417990
 C     40  38  34     2.822740213378   115.76913796   180.18971455
 C     43  40  38     2.910600845565   117.80775474   179.45346876
 H     43  40  38     2.103523279030   107.98819542    58.07702760
 H     43  40  38     2.103934822319   108.18651572   301.16583074
 C     44  43  40     2.908706438621   110.85452256   180.51815561
 H     44  43  40     2.094689895122   108.54032000    60.46113252
 H     44  43  40     2.100940097778   109.44495531   299.47214336
 N     47  44  43     2.797191874135   112.26254737   175.61126051
 H     47  44  43     2.104778217203   106.76823935    56.48606340
 H     47  44  43     2.105425431477   110.26429255   299.63418322
 C     50  47  44     2.782302522398   109.74310969   191.32377190
 H     53  50  47     2.100184074520   110.34493100    59.65485739
 H     53  50  47     2.103690244704   111.23906372   298.58214685
 H     53  50  47     2.100369809168   110.33703271   177.45568309
 C     50  47  44     2.785472067620   112.20469895    69.56769966
 H     57  50  47     2.100817589081   110.27314067   177.15064376
 H     57  50  47     2.102598150492   111.33045182    56.29866904
 H     57  50  47     2.093473397916   110.96153116   293.99185832

---------------------
BASIS SET INFORMATION
---------------------
There are 4 groups of distinct atoms

 Group   1 Type C   : 11s6p2d1f contracted to 5s3p2d1f pattern {62111/411/11/1}
 Group   2 Type N   : 11s6p2d1f contracted to 5s3p2d1f pattern {62111/411/11/1}
 Group   3 Type H   : 5s1p contracted to 3s1p pattern {311/1}
 Group   4 Type O   : 11s6p2d1f contracted to 5s3p2d1f pattern {62111/411/11/1}

Atom   0C    basis set group =>   1
Atom   1C    basis set group =>   1
Atom   2N    basis set group =>   2
Atom   3H    basis set group =>   3
Atom   4H    basis set group =>   3
Atom   5H    basis set group =>   3
Atom   6H    basis set group =>   3
Atom   7H    basis set group =>   3
Atom   8H    basis set group =>   3
Atom   9C    basis set group =>   1
Atom  10C    basis set group =>   1
Atom  11H    basis set group =>   3
Atom  12H    basis set group =>   3
Atom  13C    basis set group =>   1
Atom  14H    basis set group =>   3
Atom  15H    basis set group =>   3
Atom  16N    basis set group =>   2
Atom  17H    basis set group =>   3
Atom  18H    basis set group =>   3
Atom  19C    basis set group =>   1
Atom  20C    basis set group =>   1
Atom  21O    basis set group =>   4
Atom  22O    basis set group =>   4
Atom  23C    basis set group =>   1
Atom  24C    basis set group =>   1
Atom  25C    basis set group =>   1
Atom  26C    basis set group =>   1
Atom  27C    basis set group =>   1
Atom  28C    basis set group =>   1
Atom  29H    basis set group =>   3
Atom  30C    basis set group =>   1
Atom  31C    basis set group =>   1
Atom  32H    basis set group =>   3
Atom  33C    basis set group =>   1
Atom  34H    basis set group =>   3
Atom  35C    basis set group =>   1
Atom  36H    basis set group =>   3
Atom  37C    basis set group =>   1
Atom  38C    basis set group =>   1
Atom  39N    basis set group =>   2
Atom  40O    basis set group =>   4
Atom  41O    basis set group =>   4
Atom  42C    basis set group =>   1
Atom  43C    basis set group =>   1
Atom  44H    basis set group =>   3
Atom  45H    basis set group =>   3
Atom  46C    basis set group =>   1
Atom  47H    basis set group =>   3
Atom  48H    basis set group =>   3
Atom  49N    basis set group =>   2
Atom  50H    basis set group =>   3
Atom  51H    basis set group =>   3
Atom  52C    basis set group =>   1
Atom  53H    basis set group =>   3
Atom  54H    basis set group =>   3
Atom  55H    basis set group =>   3
Atom  56C    basis set group =>   1
Atom  57H    basis set group =>   3
Atom  58H    basis set group =>   3
Atom  59H    basis set group =>   3
---------------------------------
AUXILIARY/J BASIS SET INFORMATION
---------------------------------
There are 4 groups of distinct atoms

 Group   1 Type C   : 12s5p4d2f1g contracted to 6s4p3d1f1g pattern {711111/2111/211/2/1}
 Group   2 Type N   : 12s5p4d2f1g contracted to 6s4p3d1f1g pattern {711111/2111/211/2/1}
 Group   3 Type H   : 5s2p1d contracted to 3s1p1d pattern {311/2/1}
 Group   4 Type O   : 12s5p4d2f1g contracted to 6s4p3d1f1g pattern {711111/2111/211/2/1}

Atom   0C    basis set group =>   1
Atom   1C    basis set group =>   1
Atom   2N    basis set group =>   2
Atom   3H    basis set group =>   3
Atom   4H    basis set group =>   3
Atom   5H    basis set group =>   3
Atom   6H    basis set group =>   3
Atom   7H    basis set group =>   3
Atom   8H    basis set group =>   3
Atom   9C    basis set group =>   1
Atom  10C    basis set group =>   1
Atom  11H    basis set group =>   3
Atom  12H    basis set group =>   3
Atom  13C    basis set group =>   1
Atom  14H    basis set group =>   3
Atom  15H    basis set group =>   3
Atom  16N    basis set group =>   2
Atom  17H    basis set group =>   3
Atom  18H    basis set group =>   3
Atom  19C    basis set group =>   1
Atom  20C    basis set group =>   1
Atom  21O    basis set group =>   4
Atom  22O    basis set group =>   4
Atom  23C    basis set group =>   1
Atom  24C    basis set group =>   1
Atom  25C    basis set group =>   1
Atom  26C    basis set group =>   1
Atom  27C    basis set group =>   1
Atom  28C    basis set group =>   1
Atom  29H    basis set group =>   3
Atom  30C    basis set group =>   1
Atom  31C    basis set group =>   1
Atom  32H    basis set group =>   3
Atom  33C    basis set group =>   1
Atom  34H    basis set group =>   3
Atom  35C    basis set group =>   1
Atom  36H    basis set group =>   3
Atom  37C    basis set group =>   1
Atom  38C    basis set group =>   1
Atom  39N    basis set group =>   2
Atom  40O    basis set group =>   4
Atom  41O    basis set group =>   4
Atom  42C    basis set group =>   1
Atom  43C    basis set group =>   1
Atom  44H    basis set group =>   3
Atom  45H    basis set group =>   3
Atom  46C    basis set group =>   1
Atom  47H    basis set group =>   3
Atom  48H    basis set group =>   3
Atom  49N    basis set group =>   2
Atom  50H    basis set group =>   3
Atom  51H    basis set group =>   3
Atom  52C    basis set group =>   1
Atom  53H    basis set group =>   3
Atom  54H    basis set group =>   3
Atom  55H    basis set group =>   3
Atom  56C    basis set group =>   1
Atom  57H    basis set group =>   3
Atom  58H    basis set group =>   3
Atom  59H    basis set group =>   3
--------------------------------------------------------------------------
[[317,1],2]: A high-performance Open MPI point-to-point messaging module
was unable to find any relevant network interfaces:

Module: OpenFabrics (openib)
  Host: compute-0-9

Another transport will be used instead, although this may result in
lower performance.

NOTE: You can disable this warning by setting the MCA parameter
btl_base_warn_component_unused to 0.
--------------------------------------------------------------------------


           ************************************************************
           *        Program running with 4 parallel MPI-processes     *
           *              working on a common directory               *
           ************************************************************
------------------------------------------------------------------------------
                           ORCA GTO INTEGRAL CALCULATION
------------------------------------------------------------------------------

                         BASIS SET STATISTICS AND STARTUP INFO

 # of primitive gaussian shells          ...  808
 # of primitive gaussian functions       ... 1696
 # of contracted shells                  ...  464
 # of contracted basis functions         ... 1160
 Highest angular momentum                ...    3
 Maximum contraction depth               ...    6
 Integral package used                   ... LIBINT
 Integral threshhold            Thresh   ...  2.500e-11
 Primitive cut-off              TCut     ...  2.500e-12


------------------------------ INTEGRAL EVALUATION ----------------------------


 * One electron integrals 
 Pre-screening matrix                    ... done
 Shell pair data                         ... done (   0.027 sec)

[compute-0-9.local:42002] 3 more processes have sent help message help-mpi-btl-base.txt / btl:no-nics
[compute-0-9.local:42002] Set MCA parameter "orte_base_help_aggregate" to 0 to see all help / error messages
--------------------------------------------------------------------------
[[265,1],0]: A high-performance Open MPI point-to-point messaging module
was unable to find any relevant network interfaces:

Module: OpenFabrics (openib)
  Host: compute-0-9

Another transport will be used instead, although this may result in
lower performance.

NOTE: You can disable this warning by setting the MCA parameter
btl_base_warn_component_unused to 0.
--------------------------------------------------------------------------


           ************************************************************
           *        Program running with 4 parallel MPI-processes     *
           *              working on a common directory               *
           ************************************************************
-------------------------------------------------------------------------------
                                 ORCA SCF
-------------------------------------------------------------------------------

------------
SCF SETTINGS
------------
Hamiltonian:
 Density Functional     Method          .... DFT(GTOs)
 Exchange Functional    Exchange        .... WB97X-D3
 Correlation Functional Correlation     .... WB97X-D3
 Gradients option       PostSCFGGA      .... off
 Hybrid DFT is turned on
   Fraction HF Exchange ScalHFX         ....  0.195728
   Scaling of DF-GGA-X  ScalDFX         ....  0.000000
   Scaling of DF-GGA-C  ScalDFC         ....  1.000000
   Scaling of DF-LDA-C  ScalLDAC        ....  1.000000
   Perturbative correction              ....  0.000000
   Density functional embedding theory  .... OFF
 Long-range corrected/Screened/Range-Separated Hybrid DFT is turned on
   Amount of maximum screened exact exchange              ....  0.804272
   Range separation parameter mu (erf(mu*r12)/r12)        ....  0.250000


General Settings:
 Integral files         IntName         .... NDI-N
 Hartree-Fock type      HFTyp           .... RHF
 Total Charge           Charge          ....    0
 Multiplicity           Mult            ....    1
 Number of Electrons    NEL             ....  232
 Basis Dimension        Dim             .... 1160
 Nuclear Repulsion      ENuc            ....   3062.5862780481 Eh

Convergence Acceleration:
 DIIS                   CNVDIIS         .... on
   Start iteration      DIISMaxIt       ....    12
   Startup error        DIISStart       ....  0.200000
   # of expansion vecs  DIISMaxEq       ....     5
   Bias factor          DIISBfac        ....   1.050
   Max. coefficient     DIISMaxC        ....  10.000
 Newton-Raphson         CNVNR           .... off
 SOSCF                  CNVSOSCF        .... on
   Start iteration      SOSCFMaxIt      ....   150
   Startup grad/error   SOSCFStart      ....  0.003300
 Level Shifting         CNVShift        .... on
   Level shift para.    LevelShift      ....    0.2500
   Turn off err/grad.   ShiftErr        ....    0.0010
 Zerner damping         CNVZerner       .... off
 Static damping         CNVDamp         .... on
   Fraction old density DampFac         ....    0.7000
   Max. Damping (<1)    DampMax         ....    0.9800
   Min. Damping (>=0)   DampMin         ....    0.0000
   Turn off err/grad.   DampErr         ....    0.1000
 Fernandez-Rico         CNVRico         .... off

SCF Procedure:
 Maximum # iterations   MaxIter         ....   125
 SCF integral mode      SCFMode         .... Direct
   Integral package                     .... LIBINT
 Reset frequency        DirectResetFreq ....    20
 Integral Threshold     Thresh          ....  2.500e-11 Eh
 Primitive CutOff       TCut            ....  2.500e-12 Eh

Convergence Tolerance:
 Convergence Check Mode ConvCheckMode   .... Total+1el-Energy
 Convergence forced     ConvForced      .... 0
 Energy Change          TolE            ....  1.000e-08 Eh
 1-El. energy change                    ....  1.000e-05 Eh
 Orbital Gradient       TolG            ....  1.000e-05
 Orbital Rotation angle TolX            ....  1.000e-05
 DIIS Error             TolErr          ....  5.000e-07


Diagonalization of the overlap matrix:
Smallest eigenvalue                        ... 3.112e-06
Time for diagonalization                   ...    0.456 sec
Threshold for overlap eigenvalues          ... 1.000e-08
Number of eigenvalues below threshold      ... 0
Time for construction of square roots      ...    0.296 sec
Total time needed                          ...    0.758 sec

-------------------
DFT GRID GENERATION
-------------------

General Integration Accuracy     IntAcc      ...  4.340
Radial Grid Type                 RadialGrid  ... Gauss-Chebyshev
Angular Grid (max. acc.)         AngularGrid ... Lebedev-110
Angular grid pruning method      GridPruning ... 3 (G Style)
Weight generation scheme         WeightScheme... Becke
Basis function cutoff            BFCut       ...    1.0000e-11
Integration weight cutoff        WCut        ...    1.0000e-14
Grids for H and He will be reduced by one unit

# of grid points (after initial pruning)     ...  75648 (   0.0 sec)
# of grid points (after weights+screening)   ...  67286 (   1.0 sec)
nearest neighbour list constructed           ...    0.0 sec
Grid point re-assignment to atoms done       ...    0.0 sec
Grid point division into batches done        ...    0.1 sec
Reduced shell lists constructed in    0.6 sec

Total number of grid points                  ...    67286
Total number of batches                      ...     1087
Average number of points per batch           ...       61
Average number of grid points per atom       ...     1121
Average number of shells per batch           ...   124.38 (26.81%)
Average number of basis functions per batch  ...   291.92 (25.17%)
Average number of large shells per batch     ...    83.50 (67.13%)
Average number of large basis fcns per batch ...   195.92 (67.12%)
Maximum spatial batch extension              ...  20.45, 19.05, 20.05 au
Average spatial batch extension              ...   0.76,  0.83,  0.88 au

Time for grid setup =    1.808 sec

------------------------------
INITIAL GUESS: MODEL POTENTIAL
------------------------------
Loading Hartree-Fock densities                     ... done
Calculating cut-offs                               ... done
Setting up the integral package                    ... done
Initializing the effective Hamiltonian             ... done
Starting the Coulomb interaction                   ... [compute-0-9.local:42022] 3 more processes have sent help message help-mpi-btl-base.txt / btl:no-nics
[compute-0-9.local:42022] Set MCA parameter "orte_base_help_aggregate" to 0 to see all help / error messages
done (   2.5 sec)
Reading the grid                                   ... done
Mapping shells                                     ... done
Starting the XC term evaluation                    ... done (   1.8 sec)
  promolecular density results
     # of electrons  =    231.964149686
     EX              =   -189.886523340
     EC              =     -7.838179005
     EX+EC           =   -197.724702345
Transforming the Hamiltonian                       ... done (   0.2 sec)
Diagonalizing the Hamiltonian                      ... done (   0.4 sec)
Back transforming the eigenvectors                 ... done (   0.1 sec)
Now organizing SCF variables                       ... done
                      ------------------
                      INITIAL GUESS DONE (   7.0 sec)
                      ------------------

--------------------
CPCM SOLVATION MODEL
--------------------
CPCM parameters:
  Epsilon                                         ...       3.0000
  Refrac                                          ...       1.3300
  Rsolv                                           ...       1.3000
  Surface type                                    ...    GEPOL SES
  Epsilon function type                           ...         CPCM
Radii:
 Radius for C  used is    3.7795 Bohr (=   2.0000 Ang.)
 Radius for N  used is    3.4582 Bohr (=   1.8300 Ang.)
 Radius for H  used is    2.4566 Bohr (=   1.3000 Ang.)
 Radius for O  used is    3.2503 Bohr (=   1.7200 Ang.)
Calculating surface                               ...        done! (  0.2s)
GEPOL surface points                              ...         1924
GEPOL Volume                                      ...    3389.6547
GEPOL Surface-area                                ...    1663.7895
Calculating surface distance matrix               ...        done! (  0.0s)
Performing Cholesky decomposition & store         ...        done! (  0.3s)
Overall time for CPCM initialization              ...                 0.5s
--------------
SCF ITERATIONS
--------------
ITER       Energy         Delta-E        Max-DP      RMS-DP      [F,P]     Damp
               ***  Starting incremental Fock matrix formation  ***
  0  -1450.7212465391   0.000000000000 0.05583209  0.00065751  0.2692224 0.7000
  1  -1451.0350028498  -0.313756310696 0.05482029  0.00057820  0.1279320 0.7000
                               ***Turning on DIIS***
  2  -1451.1804693238  -0.145466474047 0.10123602  0.00114664  0.0478660 0.0000
  3  -1451.4324253186  -0.251955994829 0.04094868  0.00037500  0.0578639 0.0000
  4  -1451.4658780917  -0.033452773119 0.01022226  0.00009665  0.0118429 0.0000
  5  -1451.4678443560  -0.001966264233 0.00303106  0.00004642  0.0045294 0.0000
                      *** Initiating the SOSCF procedure ***
                           *** Shutting down DIIS ***
                      *** Re-Reading the Fockian *** 
                      *** Removing any level shift *** 
ITER      Energy       Delta-E        Grad      Rot      Max-DP    RMS-DP
  6  -1451.46809886  -0.0002545020  0.001713  0.001713  0.002799  0.000031
               *** Restarting incremental Fock matrix formation ***
  7  -1451.46818052  -0.0000816638  0.000514  0.001396  0.001271  0.000015
  8  -1451.46818942  -0.0000088944  0.000500  0.001189  0.000516  0.000005
  9  -1451.46819819  -0.0000087764  0.000084  0.000364  0.000262  0.000002
 10  -1451.46819831  -0.0000001174  0.000100  0.000104  0.000148  0.000001
 11  -1451.46819865  -0.0000003399  0.000011  0.000022  0.000029  0.000000
 12  -1451.46819866  -0.0000000081  0.000007  0.000019  0.000029  0.000000
 13  -1451.46819867  -0.0000000111  0.000003  0.000011  0.000032  0.000000
                  ***Gradient check signals convergence***
              ***Rediagonalizing the Fockian in SOSCF/NRSCF***

               *****************************************************
               *                     SUCCESS                       *
               *           SCF CONVERGED AFTER  14 CYCLES          *
               *****************************************************

Setting up the final grid:

General Integration Accuracy     IntAcc      ...  4.670
Radial Grid Type                 RadialGrid  ... Gauss-Chebyshev
Angular Grid (max. acc.)         AngularGrid ... Lebedev-302
Angular grid pruning method      GridPruning ... 3 (G Style)
Weight generation scheme         WeightScheme... Becke
Basis function cutoff            BFCut       ...    1.0000e-11
Integration weight cutoff        WCut        ...    1.0000e-14
Grids for H and He will be reduced by one unit

# of grid points (after initial pruning)     ... 293816 (   0.0 sec)
# of grid points (after weights+screening)   ... 254981 (   3.7 sec)
nearest neighbour list constructed           ...    0.0 sec
Grid point re-assignment to atoms done       ...    0.1 sec
Grid point division into batches done        ...    1.2 sec
Reduced shell lists constructed in    2.8 sec

Total number of grid points                  ...   254981
Total number of batches                      ...     4017
Average number of points per batch           ...       63
Average number of grid points per atom       ...     4250
Average number of shells per batch           ...   111.78 (24.09%)
Average number of basis functions per batch  ...   259.93 (22.41%)
Average number of large shells per batch     ...    74.22 (66.40%)
Average number of large basis fcns per batch ...   171.34 (65.92%)
Maximum spatial batch extension              ...  21.82, 18.73, 19.89 au
Average spatial batch extension              ...   0.53,  0.55,  0.56 au

Final grid set up in    7.4 sec
Final integration                            ... done (   6.9 sec)
Change in XC energy                          ...     0.000536528
Integrated number of electrons               ...   231.999386234
Previous integrated no of electrons          ...   231.994507036

----------------
TOTAL SCF ENERGY
----------------

Total Energy       :        -1451.46766211 Eh          -39496.44305 eV

Components:
Nuclear Repulsion  :         3062.58627805 Eh           83337.20941 eV
Electronic Energy  :        -4514.05394016 Eh         -122833.65245 eV
One Electron Energy:        -8061.35297802 Eh         -219360.56661 eV
Two Electron Energy:         3547.29903786 Eh           96526.91415 eV
CPCM Dielectric    :           -0.02187785 Eh              -0.59533 eV

Virial components:
Potential Energy   :        -2896.03832099 Eh          -78805.20909 eV
Kinetic Energy     :         1444.57065887 Eh           39308.76605 eV
Virial Ratio       :            2.00477443


DFT components:
N(Alpha)           :      115.999693116894 electrons
N(Beta)            :      115.999693116894 electrons
N(Total)           :      231.999386233788 electrons
E(XC)              :     -139.850532588047 Eh       
DFET-embed. en.    :        0.000000000000 Eh       
CPCM Solvation Model Properties:
Surface-charge          :           -0.05135209
Charge-correction       :           -0.00028645 Eh              -0.00779 eV
Free-energy (cav+disp)  :            0.00712717 Eh               0.19394 eV
Corrected G(solv)       :        -1451.46082139 Eh          -39496.25690 eV

---------------
SCF CONVERGENCE
---------------

  Last Energy change         ...    2.9209e-08  Tolerance :   1.0000e-08
  Last MAX-Density change    ...    3.1816e-05  Tolerance :   1.0000e-07
  Last RMS-Density change    ...    3.8096e-07  Tolerance :   5.0000e-09
  Last Orbital Gradient      ...    1.3020e-06  Tolerance :   1.0000e-05
  Last Orbital Rotation      ...    3.9888e-06  Tolerance :   1.0000e-05

             **** THE GBW FILE WAS UPDATED (NDI-N.gbw) ****
             **** DENSITY FILE WAS UPDATED (NDI-N.scfp) ****
             **** ENERGY FILE WAS UPDATED (NDI-N.en.tmp) ****
             **** THE GBW FILE WAS UPDATED (NDI-N.gbw) ****
             **** DENSITY FILE WAS UPDATED (NDI-N.scfp) ****
----------------
ORBITAL ENERGIES
----------------

  NO   OCC          E(Eh)            E(eV) 
   0   2.0000     -19.225238      -523.1453 
   1   2.0000     -19.225224      -523.1450 
   2   2.0000     -19.221663      -523.0481 
   3   2.0000     -19.221641      -523.0475 
   4   2.0000     -14.492486      -394.3606 
   5   2.0000     -14.492480      -394.3604 
   6   2.0000     -14.416805      -392.3012 
   7   2.0000     -14.416791      -392.3008 
   8   2.0000     -10.409220      -283.2493 
   9   2.0000     -10.409180      -283.2482 
  10   2.0000     -10.406515      -283.1757 
  11   2.0000     -10.406487      -283.1749 
  12   2.0000     -10.328563      -281.0545 
  13   2.0000     -10.328114      -281.0423 
  14   2.0000     -10.328098      -281.0418 
  15   2.0000     -10.328064      -281.0409 
  16   2.0000     -10.323945      -280.9288 
  17   2.0000     -10.323917      -280.9281 
  18   2.0000     -10.323608      -280.9196 
  19   2.0000     -10.323576      -280.9188 
  20   2.0000     -10.319788      -280.8157 
  21   2.0000     -10.319754      -280.8148 
  22   2.0000     -10.319202      -280.7998 
  23   2.0000     -10.319169      -280.7989 
  24   2.0000     -10.298744      -280.2431 
  25   2.0000     -10.298741      -280.2430 
  26   2.0000     -10.290014      -280.0055 
  27   2.0000     -10.289937      -280.0034 
  28   2.0000     -10.289383      -279.9883 
  29   2.0000     -10.289376      -279.9882 
  30   2.0000     -10.275247      -279.6037 
  31   2.0000     -10.275243      -279.6036 
  32   2.0000      -1.200302       -32.6619 
  33   2.0000      -1.199866       -32.6500 
  34   2.0000      -1.177680       -32.0463 
  35   2.0000      -1.177493       -32.0412 
  36   2.0000      -1.075814       -29.2744 
  37   2.0000      -1.073690       -29.2166 
  38   2.0000      -1.041963       -28.3533 
  39   2.0000      -1.030785       -28.0491 
  40   2.0000      -1.030654       -28.0455 
  41   2.0000      -0.981616       -26.7111 
  42   2.0000      -0.969712       -26.3872 
  43   2.0000      -0.911204       -24.7951 
  44   2.0000      -0.900385       -24.5007 
  45   2.0000      -0.896114       -24.3845 
  46   2.0000      -0.894784       -24.3483 
  47   2.0000      -0.842497       -22.9255 
  48   2.0000      -0.831019       -22.6132 
  49   2.0000      -0.814137       -22.1538 
  50   2.0000      -0.809194       -22.0193 
  51   2.0000      -0.809138       -22.0178 
  52   2.0000      -0.783380       -21.3169 
  53   2.0000      -0.776784       -21.1374 
  54   2.0000      -0.761312       -20.7163 
  55   2.0000      -0.754525       -20.5317 
  56   2.0000      -0.734187       -19.9782 
  57   2.0000      -0.724245       -19.7077 
  58   2.0000      -0.706281       -19.2189 
  59   2.0000      -0.683764       -18.6062 
  60   2.0000      -0.681660       -18.5489 
  61   2.0000      -0.673707       -18.3325 
  62   2.0000      -0.661444       -17.9988 
  63   2.0000      -0.644352       -17.5337 
  64   2.0000      -0.619864       -16.8673 
  65   2.0000      -0.617275       -16.7969 
  66   2.0000      -0.613026       -16.6813 
  67   2.0000      -0.600615       -16.3436 
  68   2.0000      -0.593913       -16.1612 
  69   2.0000      -0.593257       -16.1433 
  70   2.0000      -0.582426       -15.8486 
  71   2.0000      -0.577618       -15.7178 
  72   2.0000      -0.566489       -15.4149 
  73   2.0000      -0.565640       -15.3919 
  74   2.0000      -0.564762       -15.3680 
  75   2.0000      -0.555976       -15.1289 
  76   2.0000      -0.554392       -15.0858 
  77   2.0000      -0.550037       -14.9673 
  78   2.0000      -0.547179       -14.8895 
  79   2.0000      -0.542909       -14.7733 
  80   2.0000      -0.539351       -14.6765 
  81   2.0000      -0.537131       -14.6161 
  82   2.0000      -0.535828       -14.5806 
  83   2.0000      -0.529655       -14.4127 
  84   2.0000      -0.522493       -14.2178 
  85   2.0000      -0.518714       -14.1149 
  86   2.0000      -0.516437       -14.0530 
  87   2.0000      -0.513169       -13.9640 
  88   2.0000      -0.492811       -13.4101 
  89   2.0000      -0.489859       -13.3297 
  90   2.0000      -0.485039       -13.1986 
  91   2.0000      -0.484998       -13.1975 
  92   2.0000      -0.483089       -13.1455 
  93   2.0000      -0.469739       -12.7823 
  94   2.0000      -0.467049       -12.7091 
  95   2.0000      -0.456438       -12.4203 
  96   2.0000      -0.453743       -12.3470 
  97   2.0000      -0.453522       -12.3410 
  98   2.0000      -0.448681       -12.2092 
  99   2.0000      -0.446446       -12.1484 
 100   2.0000      -0.443310       -12.0631 
 101   2.0000      -0.440233       -11.9794 
 102   2.0000      -0.439560       -11.9610 
 103   2.0000      -0.427476       -11.6322 
 104   2.0000      -0.426249       -11.5988 
 105   2.0000      -0.406388       -11.0584 
 106   2.0000      -0.390908       -10.6371 
 107   2.0000      -0.383768       -10.4428 
 108   2.0000      -0.378777       -10.3070 
 109   2.0000      -0.375937       -10.2298 
 110   2.0000      -0.375633       -10.2215 
 111   2.0000      -0.369930       -10.0663 
 112   2.0000      -0.363431        -9.8894 
 113   2.0000      -0.329212        -8.9583 
 114   2.0000      -0.313058        -8.5188 
 115   2.0000      -0.313038        -8.5182 
 116   0.0000      -0.075856        -2.0641 
 117   0.0000       0.001464         0.0398 
 118   0.0000       0.025485         0.6935 
 119   0.0000       0.039420         1.0727 
 120   0.0000       0.101757         2.7690 
 121   0.0000       0.107470         2.9244 
 122   0.0000       0.110986         3.0201 
 123   0.0000       0.111435         3.0323 
 124   0.0000       0.126848         3.4517 
 125   0.0000       0.128630         3.5002 
 126   0.0000       0.143922         3.9163 
 127   0.0000       0.147253         4.0069 
 128   0.0000       0.151409         4.1200 
 129   0.0000       0.153651         4.1811 
 130   0.0000       0.155609         4.2343 
 131   0.0000       0.159500         4.3402 
 132   0.0000       0.161362         4.3909 
 133   0.0000       0.165043         4.4911 
 134   0.0000       0.172149         4.6844 
 135   0.0000       0.173158         4.7119 
 136   0.0000       0.177573         4.8320 
 137   0.0000       0.177796         4.8381 
 138   0.0000       0.178584         4.8595 
 139   0.0000       0.183468         4.9924 
 140   0.0000       0.184037         5.0079 
 141   0.0000       0.186047         5.0626 
 142   0.0000       0.189551         5.1579 
 143   0.0000       0.194605         5.2955 
 144   0.0000       0.195025         5.3069 
 145   0.0000       0.199616         5.4318 
 146   0.0000       0.199781         5.4363 
 147   0.0000       0.207018         5.6333 
 148   0.0000       0.211662         5.7596 
[...]
  59 H     1.0000    0     1.008  -29.718379    5.673273    4.684825

--------------------------------
INTERNAL COORDINATES (ANGSTROEM)
--------------------------------
 C      0   0   0     0.000000000000     0.00000000     0.00000000
 C      1   0   0     2.389606984693     0.00000000     0.00000000
 N      2   1   0     1.449710258590    34.59323524     0.00000000
 H      2   1   3     1.092319832944   144.42838573   355.66778386
 H      2   1   3     1.092977839478    89.76700822   232.81485898
 H      2   1   3     1.105995920161    94.06391716   124.78731028
 H      1   2   3     1.091812777825    87.75837018   130.90189045
 H      1   2   3     1.089662044659   144.28364430    12.68328969
 H      1   2   3     1.106516884519    96.30413153   238.90157155
 C      3   2   1     1.456912598603   109.90384269   124.67457814
 C     10   3   2     1.526899638858   113.55723191   176.85865397
 H     10   3   2     1.096977964150   107.46976935    55.07714049
 H     10   3   2     1.108678995644   110.43723529   299.28250746
 C     11  10   3     1.520581352576   108.30643194   191.45204257
 H     11  10   3     1.083014473708   109.81108536    70.31078630
 H     11  10   3     1.094912369768   109.33327695   312.69181450
 N     14  11  10     1.492690783565   120.33275348   176.94375562
 H     14  11  10     1.090075090658   108.14935409    56.54293245
 H     14  11  10     1.095741665448   109.65002413   301.71636796
 C     17  14  11     1.393371509804   123.79335230    19.13870778
 C     17  14  11     1.394585062759   112.23901274   195.30621535
 O     20  17  14     1.207741744571   123.24241333     1.71164099
 O     21  17  14     1.208035534758   120.54137957   358.48725855
 C     20  17  14     1.489840394792   117.05273787   181.59613641
 C     21  17  14     1.482453538675   118.29132779   177.83554051
 C     24  20  17     1.404628388983   120.26674697   357.33812774
 C     24  20  17     1.378721283629   119.39738807   177.87523060
 C     25  21  17     1.376650435381   120.15938314   183.30883540
 C     27  24  20     1.410392401687   120.22009161   179.65485781
 H     27  24  20     1.080576897195   119.76658977   359.72224009
 C     26  24  20     1.403738638980   119.50762581   180.28703863
 C     28  25  21     1.410249297888   119.91320415   179.03743703
 H     28  25  21     1.080993714486   119.87469787   359.58367261
 C     29  27  24     1.375911627389   119.90893760   359.93408850
 H     29  27  24     1.081135247131   120.17840679   179.98542605
 C     32  28  25     1.376813998555   120.11395665     1.05339371
 H     32  28  25     1.080919356594   120.05056757   181.04948544
 C     34  29  27     1.482416033961   120.21535094   180.26846684
 C     36  32  28     1.487468050942   119.60673352   181.04051162
 N     39  36  32     1.387480190974   117.17172466   186.25266188
 O     39  36  32     1.208577126629   120.28334395     8.71758533
 O     38  34  29     1.208416707104   120.94183115   356.93456005
 C     40  39  36     1.483470537227   121.36762609   178.11482553
 C     43  40  39     1.520703166412   117.70057493   328.87326598
 H     43  40  39     1.087537161595   104.63093854   208.80034774
 H     43  40  39     1.096496423646   108.39299701    95.34569499
 C     44  43  40     1.526001763768   108.64142749   190.45415845
 H     44  43  40     1.084821516497   110.42928579    69.87370024
 H     44  43  40     1.096634763515   110.84331319   311.06584265
 N     47  44  43     1.457819702555   113.64892949   175.32246888
 H     47  44  43     1.095548626419   109.67766606    54.88255410
 H     47  44  43     1.109861957407   108.77110272   298.75496112
 C     50  47  44     1.450149879316   109.71710490   185.59554356
 H     53  50  47     1.091859788133   109.97780266    57.66094380
 H     53  50  47     1.106657350238   112.36766188   297.24994469
 H     53  50  47     1.092261939406   109.76292461   177.23863411
 C     50  47  44     1.452417885759   112.25696491    62.42596890
 H     57  50  47     1.091061219157   109.71687352   175.24111175
 H     57  50  47     1.107486783448   112.34664714    55.09404831
 H     57  50  47     1.089281551353   110.67086152   294.05863422

---------------------------
INTERNAL COORDINATES (A.U.)
---------------------------
 C      0   0   0     0.000000000000     0.00000000     0.00000000
 C      1   0   0     4.515702768775     0.00000000     0.00000000
 N      2   1   0     2.739555362272    34.59323524     0.00000000
 H      2   1   3     2.064185334915   144.42838573   355.66778386
 H      2   1   3     2.065428787058    89.76700822   232.81485898
 H      2   1   3     2.090029394338    94.06391716   124.78731028
 H      1   2   3     2.063227139605    87.75837018   130.90189045
 H      1   2   3     2.059162842933   144.28364430    12.68328969
 H      1   2   3     2.091013874301    96.30413153   238.90157155
 C      3   2   1     2.753165812419   109.90384269   124.67457814
 C     10   3   2     2.885422151426   113.55723191   176.85865397
 H     10   3   2     2.072987927189   107.46976935    55.07714049
 H     10   3   2     2.095099672199   110.43723529   299.28250746
 C     11  10   3     2.873482320717   108.30643194   191.45204257
 H     11  10   3     2.046600754382   109.81108536    70.31078630
 H     11  10   3     2.069084519504   109.33327695   312.69181450
 N     14  11  10     2.820776783567   120.33275348   176.94375562
 H     14  11  10     2.059943386753   108.14935409    56.54293245
 H     14  11  10     2.070651661223   109.65002413   301.71636796
 C     17  14  11     2.633090556338   123.79335230    19.13870778
 C     17  14  11     2.635383839071   112.23901274   195.30621535
 O     20  17  14     2.282301137744   123.24241333     1.71164099
 O     21  17  14     2.282856320738   120.54137957   358.48725855
 C     20  17  14     2.815390329410   117.05273787   181.59613641
 C     21  17  14     2.801431194359   118.29132779   177.83554051
 C     24  20  17     2.654362975109   120.26674697   357.33812774
 C     24  20  17     2.605405641066   119.39738807   177.87523060
 C     25  21  17     2.601492305013   120.15938314   183.30883540
 C     27  24  20     2.665255380551   120.22009161   179.65485781
 H     27  24  20     2.041994402341   119.76658977   359.72224009
 C     26  24  20     2.652681591276   119.50762581   180.28703863
 C     28  25  21     2.664984953563   119.91320415   179.03743703
 H     28  25  21     2.042782072869   119.87469787   359.58367261
 C     29  27  24     2.600096160243   119.90893760   359.93408850
 H     29  27  24     2.043049530807   120.17840679   179.98542605
 C     32  28  25     2.601801394618   120.11395665     1.05339371
 H     32  28  25     2.042641556817   120.05056757   181.04948544
 C     34  29  27     2.801360320721   120.21535094   180.26846684
 C     36  32  28     2.810907249238   119.60673352   181.04051162
 N     39  36  32     2.621957577181   117.17172466   186.25266188
 O     39  36  32     2.283879781051   120.28334395     8.71758533
 O     38  34  29     2.283576632081   120.94183115   356.93456005
 C     40  39  36     2.803353043100   121.36762609   178.11482553
 C     43  40  39     2.873712515505   117.70057493   328.87326598
 H     43  40  39     2.055147395876   104.63093854   208.80034774
 H     43  40  39     2.072077947514   108.39299701    95.34569499
 C     44  43  40     2.883725413403   108.64142749   190.45415845
 H     44  43  40     2.050015570364   110.42928579    69.87370024
 H     44  43  40     2.072339371980   110.84331319   311.06584265
 N     47  44  43     2.754879990464   113.64892949   175.32246888
 H     47  44  43     2.070286870325   109.67766606    54.88255410
 H     47  44  43     2.097335145957   108.77110272   298.75496112
 C     50  47  44     2.740386125046   109.71710490   185.59554356
 H     53  50  47     2.063315976213   109.97780266    57.66094380
 H     53  50  47     2.091279316040   112.36766188   297.24994469
 H     53  50  47     2.064075931982   109.76292461   177.23863411
 C     50  47  44     2.744672036093   112.25696491    62.42596890
 H     57  50  47     2.061806899549   109.71687352   175.24111175
 H     57  50  47     2.092846717654   112.34664714    55.09404831
 H     57  50  47     2.058443814790   110.67086152   294.05863422

--------------------------------------------------------------------------
[[43788,1],1]: A high-performance Open MPI point-to-point messaging module
was unable to find any relevant network interfaces:

Module: OpenFabrics (openib)
  Host: compute-0-9

Another transport will be used instead, although this may result in
lower performance.

NOTE: You can disable this warning by setting the MCA parameter
btl_base_warn_component_unused to 0.
--------------------------------------------------------------------------


           ************************************************************
           *        Program running with 4 parallel MPI-processes     *
           *              working on a common directory               *
           ************************************************************
[compute-0-9.local:03619] 3 more processes have sent help message help-mpi-btl-base.txt / btl:no-nics
[compute-0-9.local:03619] Set MCA parameter "orte_base_help_aggregate" to 0 to see all help / error messages
--------------------------------------------------------------------------
[[43800,1],0]: A high-performance Open MPI point-to-point messaging module
was unable to find any relevant network interfaces:

Module: OpenFabrics (openib)
  Host: compute-0-9

Another transport will be used instead, although this may result in
lower performance.

NOTE: You can disable this warning by setting the MCA parameter
btl_base_warn_component_unused to 0.
--------------------------------------------------------------------------


           ************************************************************
           *        Program running with 4 parallel MPI-processes     *
           *              working on a common directory               *
           ************************************************************

Diagonalization of the overlap matrix:
Smallest eigenvalue                        ... 3.096e-06
Time for diagonalization                   ...    0.413 sec
Threshold for overlap eigenvalues          ... 1.000e-08
Number of eigenvalues below threshold      ... 0
Time for construction of square roots      ...    0.284 sec
Total time needed                          ...    0.702 sec

-------------------
DFT GRID GENERATION
-------------------

General Integration Accuracy     IntAcc      ...  4.340
Radial Grid Type                 RadialGrid  ... Gauss-Chebyshev
Angular Grid (max. acc.)         AngularGrid ... Lebedev-110
Angular grid pruning method      GridPruning ... 3 (G Style)
Weight generation scheme         WeightScheme... Becke
Basis function cutoff            BFCut       ...    1.0000e-11
Integration weight cutoff        WCut        ...    1.0000e-14
Grids for H and He will be reduced by one unit

# of grid points (after initial pruning)     ...  75648 (   0.0 sec)
# of grid points (after weights+screening)   ...  67135 (   1.0 sec)
nearest neighbour list constructed           ...    0.0 sec
Grid point re-assignment to atoms done       ...    0.0 sec
Grid point division into batches done        ...    0.1 sec
Reduced shell lists constructed in    0.5 sec

Total number of grid points                  ...    67135
Total number of batches                      ...     1078
Average number of points per batch           ...       62
Average number of grid points per atom       ...     1119
Average number of shells per batch           ...   125.08 (26.96%)
Average number of basis functions per batch  ...   294.21 (25.36%)
Average number of large shells per batch     ...    84.25 (67.36%)
Average number of large basis fcns per batch ...   197.78 (67.23%)
Maximum spatial batch extension              ...  21.57, 19.49, 22.62 au
Average spatial batch extension              ...   0.74,  0.81,  0.91 au

Time for grid setup =    1.709 sec


--------------------
CPCM SOLVATION MODEL
--------------------
CPCM parameters:
  Epsilon                                         ...       3.0000
  Refrac                                          ...       1.3300
  Rsolv                                           ...       1.3000
  Surface type                                    ...    GEPOL SES
  Epsilon function type                           ...         CPCM
Radii:
 Radius for C  used is    3.7795 Bohr (=   2.0000 Ang.)
 Radius for N  used is    3.4582 Bohr (=   1.8300 Ang.)
 Radius for H  used is    2.4566 Bohr (=   1.3000 Ang.)
 Radius for O  used is    3.2503 Bohr (=   1.7200 Ang.)
Calculating surface                               ...        done! (  0.2s)
GEPOL surface points                              ...         1878
GEPOL Volume                                      ...    3376.4095
GEPOL Surface-area                                ...    1650.6757
Calculating surface distance matrix               ...        done! (  0.0s)
Performing Cholesky decomposition & store         ...        [compute-0-9.local:03639] 3 more processes have sent help message help-mpi-btl-base.txt / btl:no-nics
[compute-0-9.local:03639] Set MCA parameter "orte_base_help_aggregate" to 0 to see all help / error messages
done! (  0.2s)
Overall time for CPCM initialization              ...                 0.5s
--------------
SCF ITERATIONS
--------------
ITER       Energy         Delta-E        Max-DP      RMS-DP      [F,P]     Damp
               ***  Starting incremental Fock matrix formation  ***
  0  -1451.4911547523   0.000000000000 0.00429485  0.00004621  0.0387741 0.7000
                      *** Initiating the SOSCF procedure ***
                      *** Re-Reading the Fockian *** 
                      *** Removing any level shift *** 
ITER      Energy       Delta-E        Grad      Rot      Max-DP    RMS-DP
  1  -1451.49476256  -0.0036078122  0.001767  0.001767  0.014122  0.000138
               *** Restarting incremental Fock matrix formation ***
  2  -1451.50572538  -0.0109628192  0.001985  0.003406  0.003769  0.000042
  3  -1451.50664242  -0.0009170411  0.000812  0.002082  0.002164  0.000024
  4  -1451.50674590  -0.0001034747  0.000142  0.000280  0.000671  0.000006
  5  -1451.50674811  -0.0000022079  0.000117  0.000099  0.000380  0.000003
  6  -1451.50675138  -0.0000032682  0.000030  0.000070  0.000173  0.000001
  7  -1451.50675141  -0.0000000298  0.000036  0.000026  0.000085  0.000000
  8  -1451.50675150  -0.0000000933  0.000007  0.000023  0.000041  0.000000
  9  -1451.50675150  -0.0000000033  0.000004  0.000015  0.000027  0.000000
                  ***Gradient check signals convergence***
              ***Rediagonalizing the Fockian in SOSCF/NRSCF***

               *****************************************************
               *                     SUCCESS                       *
               *           SCF CONVERGED AFTER  10 CYCLES          *
               *****************************************************

Setting up the final grid:

General Integration Accuracy     IntAcc      ...  4.670
Radial Grid Type                 RadialGrid  ... Gauss-Chebyshev
Angular Grid (max. acc.)         AngularGrid ... Lebedev-302
Angular grid pruning method      GridPruning ... 3 (G Style)
Weight generation scheme         WeightScheme... Becke
Basis function cutoff            BFCut       ...    1.0000e-11
Integration weight cutoff        WCut        ...    1.0000e-14
Grids for H and He will be reduced by one unit

# of grid points (after initial pruning)     ... 293816 (   0.0 sec)
# of grid points (after weights+screening)   ... 254549 (   3.6 sec)
nearest neighbour list constructed           ...    0.0 sec
Grid point re-assignment to atoms done       ...    0.1 sec
Grid point division into batches done        ...    1.1 sec
Reduced shell lists constructed in    2.7 sec

Total number of grid points                  ...   254549
Total number of batches                      ...     4004
Average number of points per batch           ...       63
Average number of grid points per atom       ...     4242
Average number of shells per batch           ...   112.40 (24.22%)
Average number of basis functions per batch  ...   261.45 (22.54%)
Average number of large shells per batch     ...    75.01 (66.73%)
Average number of large basis fcns per batch ...   173.43 (66.34%)
Maximum spatial batch extension              ...  18.86, 19.73, 20.64 au
Average spatial batch extension              ...   0.51,  0.54,  0.55 au

Final grid set up in    7.1 sec
Final integration                            ... done (   6.6 sec)
Change in XC energy                          ...     0.001662812
Integrated number of electrons               ...   232.000125010
Previous integrated no of electrons          ...   231.984789855
Total Energy       :        -1451.50508869 Eh          -39497.46148 eV
  Last Energy change         ...    2.5195e-09  Tolerance :   1.0000e-08
  Last MAX-Density change    ...    3.4452e-05  Tolerance :   1.0000e-07
             **** THE GBW FILE WAS UPDATED (NDI-N.gbw) ****
             **** DENSITY FILE WAS UPDATED (NDI-N.scfp) ****
             **** ENERGY FILE WAS UPDATED (NDI-N.en.tmp) ****
             **** THE GBW FILE WAS UPDATED (NDI-N.gbw) ****
             **** DENSITY FILE WAS UPDATED (NDI-N.scfp) ****
Total SCF time: 0 days 1 hours 45 min 25 sec 


-------------------------------------------------------------------------------
                          DFT DISPERSION CORRECTION                            
                                                                               
                              DFTD3 V3.1  Rev 1                                
                              USING zero damping                               
-------------------------------------------------------------------------------
-------------------------   ----------------
Dispersion correction           -0.027471973
-------------------------   ----------------


-------------------------   --------------------
FINAL SINGLE POINT ENERGY     -1451.532560660684
-------------------------   --------------------

--------------------------------------------------------------------------
[[34694,1],0]: A high-performance Open MPI point-to-point messaging module
was unable to find any relevant network interfaces:

Module: OpenFabrics (openib)
  Host: compute-0-9

Another transport will be used instead, although this may result in
lower performance.

NOTE: You can disable this warning by setting the MCA parameter
btl_base_warn_component_unused to 0.
--------------------------------------------------------------------------


           ************************************************************
           *        Program running with 4 parallel MPI-processes     *
           *              working on a common directory               *
           ************************************************************
------------------------------------------------------------------------------
                         ORCA SCF GRADIENT CALCULATION
------------------------------------------------------------------------------

[compute-0-9.local:08873] 3 more processes have sent help message help-mpi-btl-base.txt / btl:no-nics
[compute-0-9.local:08873] Set MCA parameter "orte_base_help_aggregate" to 0 to see all help / error messages
Gradient of the Kohn-Sham DFT energy:
Kohn-Sham wavefunction type      ... RKS
Hartree-Fock exchange scaling    ...    0.196
Number of operators              ...    1
Number of atoms                  ...   60
Basis set dimensions             ... 1160
Integral neglect threshold       ... 2.5e-11
Integral primitive cutoff        ... 2.5e-12

Nuclear repulsion gradient       ... done
One Electron Gradient            ... done
Pre-screening matrix             ... done
Starting the two electron gradient:
