Warning: no access to tty (Bad file descriptor).
Thus no job control in this shell.

                                 *****************
                                 * O   R   C   A *
                                 *****************

           --- An Ab Initio, DFT and Semiempirical electronic structure package ---

                  #######################################################
                  #                        -***-                        #
                  #          Department of theory and spectroscopy      #
                  #               Directorship: Frank Neese             #
                  #        Max Planck Institute fuer Kohlenforschung    #
                  #                Kaiser Wilhelm Platz 1               #
                  #                 D-45470 Muelheim/Ruhr               #
                  #                      Germany                        #
                  #                                                     #
                  #                  All rights reserved                #
                  #                        -***-                        #
                  #######################################################


                         Program Version 4.2.1 -  RELEASE  -


 With contributions from (in alphabetic order):
   Daniel Aravena         : Magnetic Suceptibility
   Michael Atanasov       : Ab Initio Ligand Field Theory (pilot matlab implementation)
   Alexander A. Auer      : GIAO ZORA, VPT2
   Ute Becker             : Parallelization
   Giovanni Bistoni       : ED, misc. LED, open-shell LED, HFLD
   Martin Brehm           : Molecular dynamics
   Dmytro Bykov           : SCF Hessian
   Vijay G. Chilkuri      : MRCI spin determinant printing, contributions to CSF-ICE
   Dipayan Datta          : RHF DLPNO-CCSD density
   Achintya Kumar Dutta   : EOM-CC, STEOM-CC
   Dmitry Ganyushin       : Spin-Orbit,Spin-Spin,Magnetic field MRCI
   Miquel Garcia          : C-PCM Hessian, Gaussian charge scheme
   Yang Guo               : DLPNO-NEVPT2, CIM, IAO-localization
   Andreas Hansen         : Spin unrestricted coupled pair/coupled cluster methods
   Benjamin Helmich-Paris : CASSCF linear response (MC-RPA)
   Lee Huntington         : MR-EOM, pCC
   Robert Izsak           : Overlap fitted RIJCOSX, COSX-SCS-MP3, EOM
   Christian Kollmar      : KDIIS, OOCD, Brueckner-CCSD(T), CCSD density
   Simone Kossmann        : Meta GGA functionals, TD-DFT gradient, OOMP2, MP2 Hessian
   Martin Krupicka        : AUTO-CI
   Lucas Lang             : DCDCAS
   Dagmar Lenk            : GEPOL surface, SMD
   Dimitrios Liakos       : Extrapolation schemes; Compound Job, initial MDCI parallelization
   Dimitrios Manganas     : Further ROCIS development; embedding schemes
   Dimitrios Pantazis     : SARC Basis sets
   Taras Petrenko         : DFT Hessian,TD-DFT gradient, ASA, ECA, R-Raman, ABS, FL, XAS/XES, NRVS
   Peter Pinski           : DLPNO-MP2, DLPNO-MP2 Gradient
   Christoph Reimann      : Effective Core Potentials
   Marius Retegan         : Local ZFS, SOC
   Christoph Riplinger    : Optimizer, TS searches, QM/MM, DLPNO-CCSD(T), (RO)-DLPNO pert. Triples
   Tobias Risthaus        : Range-separated hybrids, TD-DFT gradient, RPA, STAB
   Michael Roemelt        : Original ROCIS implementation
   Masaaki Saitow         : Open-shell DLPNO-CCSD energy and density
   Barbara Sandhoefer     : DKH picture change effects
   Avijit Sen             : IP-ROCIS
   Kantharuban Sivalingam : CASSCF convergence, NEVPT2, FIC-MRCI
   Bernardo de Souza      : ESD, SOC TD-DFT
   Georgi Stoychev        : AutoAux, RI-MP2 NMR
   Willem Van den Heuvel  : Paramagnetic NMR
   Boris Wezisla          : Elementary symmetry handling
   Frank Wennmohs         : Technical directorship


 We gratefully acknowledge several colleagues who have allowed us to
 interface, adapt or use parts of their codes:
   Stefan Grimme, W. Hujo, H. Kruse,             : VdW corrections, initial TS optimization,
                  C. Bannwarth                     DFT functionals, gCP, sTDA/sTD-DF
   Ed Valeev, F. Pavosevic, A. Kumar             : LibInt (2-el integral package), F12 methods
   Garnet Chan, S. Sharma, J. Yang, R. Olivares  : DMRG
   Ulf Ekstrom                                   : XCFun DFT Library
   Mihaly Kallay                                 : mrcc  (arbitrary order and MRCC methods)
   Andreas Klamt, Michael Diedenhofen            : otool_cosmo (COSMO solvation model)
   Jiri Pittner, Ondrej Demel                    : Mk-CCSD
   Frank Weinhold                                : gennbo (NPA and NBO analysis)
   Christopher J. Cramer and Donald G. Truhlar   : smd solvation model
   Lars Goerigk                                  : TD-DFT with DH, B97 family of functionals
   V. Asgeirsson, H. Jonsson                     : NEB implementation
   FAccTs GmbH                                   : IRC, NEB, NEB-TS, Multilevel, MM, QM/MM, CI optimization
   S Lehtola, MJT Oliveira, MAL Marques          : LibXC Library


 Your calculation uses the libint2 library for the computation of 2-el integrals
 For citations please refer to: http://libint.valeyev.net

 Your ORCA version has been built with support for libXC version: 4.2.3
 For citations please refer to: https://tddft.org/programs/libxc/

 This ORCA versions uses:
   CBLAS   interface :  Fast vector & matrix operations
   LAPACKE interface :  Fast linear algebra routines
   SCALAPACK package :  Parallel linear algebra routines


Your calculation utilizes the atom-pairwise dispersion correction
with the zero-damping scheme (D30)
Cite in your paper:
S.Grimme, J.Antony, S.Ehrlich and H.Krieg, J.Chem.Phys., 132, (2010), 154104 
   

XCFun DFT library Copyright 2009-2010 Ulf Ekstrom and contributors.
See http://admol.org/xcfun for more information. This is free soft-
ware; see the source code for copying conditions. There is ABSOLUTELY
NO WARRANTY; not even for MERCHANTABILITY or FITNESS FOR A PARTICULAR
PURPOSE. For details see the documentation. Scientific users of this 
library should cite U. Ekstrom, L. Visscher, R. Bast, A. J. Thorvald-
sen and K. Ruud; J.Chem.Theor.Comp. 2010, DOI: 10.1021/ct100117s
XCFun Version 0.99 
----- Orbital basis set information -----
Your calculation utilizes the basis: def2-TZVP
   F. Weigend and R. Ahlrichs, Phys. Chem. Chem. Phys. 7, 3297 (2005).

----- AuxJ basis set information -----
Your calculation utilizes the auxiliary basis: def2/J
   F. Weigend, Phys. Chem. Chem. Phys. 8, 1057 (2006).

cite the ECPs for W  [Def2-ECP] as follows:
Ce-Yb(ecp-28): M. Dolg, H. Stoll, H.Preuss, J. Chem. Phys., 1989, 90, 1730-1734.
Y-Cd(ecp-28), Hf-Hg(ecp-46): D. Andrae,U. Haeussermann, M. Dolg, H. Stoll, H. Preuss, Theor. Chim. Acta, 1990, 77, 123-141.
In-Sb(ecp-28), Tl-Bi(ecp-46): B. Metz, H. Stoll, M. Dolg, J. Chem. Phys., 2000, 113, 2563-2569.
Te-Xe(ecp-28), Po-Rn(ecp-46): K. A. Peterson, D. Figgen, E. Goll, H. Stoll, M. Dolg, J. Chem. Phys., 2003, 119, 11113-11123.
Rb(ecp-28), Cs(ecp-46): T. Leininger, A. Nicklass, W. Kuechle, H. Stoll, M. Dolg, A. Bergner, Chem. Phys. Lett., 1996, 255, 274-280.
Sr(ecp-28), Ba(ecp-46): M. Kaupp, P. V. Schleyer, H. Stoll and H. Preuss, J. Chem. Phys., 1991, 94, 1360-1366.
La(ecp-46): M. Dolg, H. Stoll, A. Savin, H. Preuss, Theor. Chim. Acta, 1989, 75, 173-194.
Lu(ecp-28): X. Cao, M. Dolg, J. Chem. Phys., 2001, 115, 7348-7355.

ECP parameters for W  [Def2-ECP] have been obtained from:
TURBOMOLE (7.0.2)

================================================================================
                                        WARNINGS
                       Please study these warnings very carefully!
================================================================================


WARNING: Geometry Optimization
  ===> : Switching off AutoStart
         For restart on a previous wavefunction, please use MOREAD

INFO   : the flag for use of LIBINT has been found!

================================================================================
                                       INPUT FILE
================================================================================
NAME = WO3.inp
|  1> # avogadro generated ORCA input file 
|  2> # Basic Mode
|  3> # 
|  4> ! wB97X-D3 OPT def2-TZVP def2/J CPCM
|  5> %cpcm
|  6>   epsilon 3
|  7> end
|  8> %pal
|  9>  nprocs 4
| 10> end 
| 11> 
| 12> * xyz 0 1
| 13>    O       -1.22489        1.76735       -0.09580
| 14>    O        1.85803        2.11573       -0.10442
| 15>    O        0.61837       -0.72703       -0.01634
| 16>    W        0.41717        1.05198       -0.07344
| 17> *
| 18> 
| 19> 
| 20>                          ****END OF INPUT****
================================================================================

                       *****************************
                       * Geometry Optimization Run *
                       *****************************

Geometry optimization settings:
Update method            Update   .... BFGS
Choice of coordinates    CoordSys .... Z-matrix Internals
Initial Hessian          InHess   .... Almoef's Model

Convergence Tolerances:
Energy Change            TolE     ....  5.0000e-06 Eh
Max. Gradient            TolMAXG  ....  3.0000e-04 Eh/bohr
RMS Gradient             TolRMSG  ....  1.0000e-04 Eh/bohr
Max. Displacement        TolMAXD  ....  4.0000e-03 bohr
RMS Displacement         TolRMSD  ....  2.0000e-03 bohr
Strict Convergence                ....  False
------------------------------------------------------------------------------
                        ORCA OPTIMIZATION COORDINATE SETUP
------------------------------------------------------------------------------

The optimization will be done in new redundant internal coordinates
Making redundant internal coordinates   ...  (new redundants) done
Evaluating the initial hessian          ...  (Almloef) done
Evaluating the coordinates              ...  done
Calculating the B-matrix                .... done
Calculating the G-matrix                .... done
Diagonalizing the G-matrix              .... done
The first mode is                       ....    1
The number of degrees of freedom        ....    6

    -----------------------------------------------------------------
                    Redundant Internal Coordinates


    -----------------------------------------------------------------
         Definition                    Initial Value    Approx d2E/dq
    -----------------------------------------------------------------
      1. B(W   3,O   1)                  1.7913         0.298295   
      2. B(W   3,O   2)                  1.7913         0.298290   
      3. B(W   3,O   0)                  1.7913         0.298291   
      4. A(O   0,W   3,O   2)          120.0000         0.363541   
      5. A(O   1,W   3,O   2)          119.9997         0.363542   
      6. A(O   0,W   3,O   1)          120.0001         0.363542   
      7. I(O   0,O   2,O   1,W   3)      0.1203         0.033136   
    -----------------------------------------------------------------

Number of atoms                         .... 4
Number of degrees of freedom            .... 7

         *************************************************************
         *                GEOMETRY OPTIMIZATION CYCLE   1            *
         *************************************************************
---------------------------------
CARTESIAN COORDINATES (ANGSTROEM)
---------------------------------
  O     -1.224890    1.767350   -0.095800
  O      1.858030    2.115730   -0.104420
  O      0.618370   -0.727030   -0.016340
  W      0.417170    1.051980   -0.073440

----------------------------
CARTESIAN COORDINATES (A.U.)
----------------------------
  NO LB      ZA    FRAG     MASS         X           Y           Z
   0 O     8.0000    0    15.999   -2.314707    3.339807   -0.181036
   1 O     8.0000    0    15.999    3.511168    3.998150   -0.197325
   2 O     8.0000    0    15.999    1.168550   -1.373888   -0.030878
   3 W    14.0000*   0   183.850    0.788337    1.987954   -0.138781
* core charge reduced due to ECP

--------------------------------
INTERNAL COORDINATES (ANGSTROEM)
--------------------------------
 O      0   0   0     0.000000000000     0.00000000     0.00000000
 O      1   0   0     3.102553570077     0.00000000     0.00000000
 O      2   1   0     3.102547246957    60.00011638     0.00000000
 W      2   1   3     1.791256922527    29.99996499     0.08021335

---------------------------
INTERNAL COORDINATES (A.U.)
---------------------------
 O      0   0   0     0.000000000000     0.00000000     0.00000000
 O      1   0   0     5.862976563266     0.00000000     0.00000000
 O      2   1   0     5.862964614300    60.00011638     0.00000000
 W      2   1   3     3.384985019066    29.99996499     0.08021335

---------------------
BASIS SET INFORMATION
---------------------
There are 2 groups of distinct atoms

 Group   1 Type O   : 11s6p2d1f contracted to 5s3p2d1f pattern {62111/411/11/1}
 Group   2 Type W   : 8s7p6d1f contracted to 6s4p3d1f pattern {311111/4111/411/1}

Atom   0O    basis set group =>   1
Atom   1O    basis set group =>   1
Atom   2O    basis set group =>   1
Atom   3W    basis set group =>   2
---------------------------------
AUXILIARY/J BASIS SET INFORMATION
---------------------------------
There are 2 groups of distinct atoms

 Group   1 Type O   : 12s5p4d2f1g contracted to 6s4p3d1f1g pattern {711111/2111/211/2/1}
 Group   2 Type W   : 11s5p5d3f3g contracted to 8s5p5d2f3g pattern {41111111/11111/11111/21/111}

Atom   0O    basis set group =>   1
Atom   1O    basis set group =>   1
Atom   2O    basis set group =>   1
Atom   3W    basis set group =>   2
-------------------------
ECP PARAMETER INFORMATION
-------------------------

 Group 1, Type W  ECP Def2-ECP (replacing 60 core electrons, lmax=3)

Atom   3W    ECP group =>   1

--------------------------------------------------------------------------
[[3657,1],2]: A high-performance Open MPI point-to-point messaging module
was unable to find any relevant network interfaces:

Module: OpenFabrics (openib)
  Host: compute-1-0

Another transport will be used instead, although this may result in
lower performance.

NOTE: You can disable this warning by setting the MCA parameter
btl_base_warn_component_unused to 0.
--------------------------------------------------------------------------


           ************************************************************
           *        Program running with 4 parallel MPI-processes     *
           *              working on a common directory               *
           ************************************************************
------------------------------------------------------------------------------
                           ORCA GTO INTEGRAL CALCULATION
------------------------------------------------------------------------------

                         BASIS SET STATISTICS AND STARTUP INFO

 # of primitive gaussian shells          ...   82
 # of primitive gaussian functions       ...  204
 # of contracted shells                  ...   47
 # of contracted basis functions         ...  133
 Highest angular momentum                ...    3
 Maximum contraction depth               ...    6
 Integral package used                   ... LIBINT
 Integral threshhold            Thresh   ...  2.500e-11
 Primitive cut-off              TCut     ...  2.500e-12


------------------------------ INTEGRAL EVALUATION ----------------------------


 * One electron integrals 

   ECP integrals                         ... done
 Pre-screening matrix                    ... done
 Shell pair data                         ... done (   0.001 sec)

[compute-1-0.local:60494] 3 more processes have sent help message help-mpi-btl-base.txt / btl:no-nics
[compute-1-0.local:60494] Set MCA parameter "orte_base_help_aggregate" to 0 to see all help / error messages
--------------------------------------------------------------------------
[[3684,1],1]: A high-performance Open MPI point-to-point messaging module
was unable to find any relevant network interfaces:

Module: OpenFabrics (openib)
  Host: compute-1-0

Another transport will be used instead, although this may result in
lower performance.

NOTE: You can disable this warning by setting the MCA parameter
btl_base_warn_component_unused to 0.
--------------------------------------------------------------------------


           ************************************************************
           *        Program running with 4 parallel MPI-processes     *
           *              working on a common directory               *
           ************************************************************
-------------------------------------------------------------------------------
                                 ORCA SCF
-------------------------------------------------------------------------------

------------
SCF SETTINGS
------------
Hamiltonian:
 Density Functional     Method          .... DFT(GTOs)
 Exchange Functional    Exchange        .... WB97X-D3
 Correlation Functional Correlation     .... WB97X-D3
 Gradients option       PostSCFGGA      .... off
 Hybrid DFT is turned on
   Fraction HF Exchange ScalHFX         ....  0.195728
   Scaling of DF-GGA-X  ScalDFX         ....  0.000000
   Scaling of DF-GGA-C  ScalDFC         ....  1.000000
   Scaling of DF-LDA-C  ScalLDAC        ....  1.000000
   Perturbative correction              ....  0.000000
   Density functional embedding theory  .... OFF
 Long-range corrected/Screened/Range-Separated Hybrid DFT is turned on
   Amount of maximum screened exact exchange              ....  0.804272
   Range separation parameter mu (erf(mu*r12)/r12)        ....  0.250000


General Settings:
 Integral files         IntName         .... WO3
 Hartree-Fock type      HFTyp           .... RHF
 Total Charge           Charge          ....    0
 Multiplicity           Mult            ....    1
 Number of Electrons    NEL             ....   38
 Basis Dimension        Dim             ....  133
 Nuclear Repulsion      ENuc            ....    132.0096123981 Eh

Convergence Acceleration:
 DIIS                   CNVDIIS         .... on
   Start iteration      DIISMaxIt       ....    12
   Startup error        DIISStart       ....  0.200000
   # of expansion vecs  DIISMaxEq       ....     5
   Bias factor          DIISBfac        ....   1.050
   Max. coefficient     DIISMaxC        ....  10.000
 Newton-Raphson         CNVNR           .... off
 SOSCF                  CNVSOSCF        .... off
 Level Shifting         CNVShift        .... on
   Level shift para.    LevelShift      ....    0.2500
   Turn off err/grad.   ShiftErr        ....    0.0010
 Zerner damping         CNVZerner       .... off
 Static damping         CNVDamp         .... on
   Fraction old density DampFac         ....    0.7000
   Max. Damping (<1)    DampMax         ....    0.9800
   Min. Damping (>=0)   DampMin         ....    0.0000
   Turn off err/grad.   DampErr         ....    0.1000
 Fernandez-Rico         CNVRico         .... off

SCF Procedure:
 Maximum # iterations   MaxIter         ....   125
 SCF integral mode      SCFMode         .... Direct
   Integral package                     .... LIBINT
 Reset frequency        DirectResetFreq ....    20
 Integral Threshold     Thresh          ....  2.500e-11 Eh
 Primitive CutOff       TCut            ....  2.500e-12 Eh

Convergence Tolerance:
 Convergence Check Mode ConvCheckMode   .... Total+1el-Energy
 Convergence forced     ConvForced      .... 0
 Energy Change          TolE            ....  1.000e-08 Eh
 1-El. energy change                    ....  1.000e-05 Eh
 DIIS Error             TolErr          ....  5.000e-07


Diagonalization of the overlap matrix:
Smallest eigenvalue                        ... 2.856e-03
Time for diagonalization                   ...    0.006 sec
Threshold for overlap eigenvalues          ... 1.000e-08
Number of eigenvalues below threshold      ... 0
Time for construction of square roots      ...    0.002 sec
Total time needed                          ...    0.009 sec

-------------------
DFT GRID GENERATION
-------------------

General Integration Accuracy     IntAcc      ...  4.340
Radial Grid Type                 RadialGrid  ... Gauss-Chebyshev
Angular Grid (max. acc.)         AngularGrid ... Lebedev-110
Angular grid pruning method      GridPruning ... 3 (G Style)
Weight generation scheme         WeightScheme... Becke
Basis function cutoff            BFCut       ...    1.0000e-11
Integration weight cutoff        WCut        ...    1.0000e-14
Grids for H and He will be reduced by one unit

# of grid points (after initial pruning)     ...   8678 (   0.0 sec)
# of grid points (after weights+screening)   ...   8591 (   0.0 sec)
nearest neighbour list constructed           ...    0.0 sec
Grid point re-assignment to atoms done       ...    0.0 sec
Grid point division into batches done        ...    0.0 sec
Reduced shell lists constructed in    0.0 sec

Total number of grid points                  ...     8591
Total number of batches                      ...      137
Average number of points per batch           ...       62
Average number of grid points per atom       ...     2148
Average number of shells per batch           ...    29.06 (61.82%)
Average number of basis functions per batch  ...    85.39 (64.20%)
Average number of large shells per batch     ...    23.94 (82.41%)
Average number of large basis fcns per batch ...    69.67 (81.59%)
Maximum spatial batch extension              ...  27.46, 24.82, 27.01 au
Average spatial batch extension              ...   1.93,  1.75,  2.10 au

Time for grid setup =    0.048 sec

------------------------------
INITIAL GUESS: MODEL POTENTIAL
------------------------------
Loading Hartree-Fock densities                     ... done
  calling /share/apps/orca/orca_4_2_1_linux_x86-64_openmpi216/orca WO3_atom74.inp > WO3_atom74.out in order to generate an atomic fitting density for atom 3 (W  with ECP) on-the-fly... 
    atom 3 (W ), assumed electronic state with S=5: 1s2 2s2 2p6 3s2 3p6 4s2 3d10 4p6 5s2 4d10 5p6 6s2 4f14 5d4           ... done
Calculating cut-offs                               ... done
Setting up the integral package                    ... done
Initializing the effective Hamiltonian             ... done
Starting the Coulomb interaction                   ... done (   0.0 sec)
Reading the grid                                   ... done
Mapping shells                                     ... done
Starting the XC term evaluation                    ... done (   0.0 sec)
  promolecular density results
     # of electrons  =     98.001917106
     EX              =   -349.148030523
     EC              =     -5.236294781
     EX+EC           =   -354.384325304
Transforming the Hamiltonian                       ... done (   0.0 sec)
Diagonalizing the Hamiltonian                      ... done (   0.0 sec)
Back transforming the eigenvectors                 ... done (   0.0 sec)
Now organizing SCF variables                       ... done
                      ------------------
                      INITIAL GUESS DONE (   4.8 sec)
                      ------------------

--------------------
CPCM SOLVATION MODEL
--------------------
CPCM parameters:
  Epsilon                                         ...       3.0000
  Refrac                                          ...       1.3300
  Rsolv                                           ...       1.3000
  Surface type                                    ...    GEPOL SES
  Epsilon function type                           ...         CPCM
Radii:
 Radius for O  used is    3.2503 Bohr (=   1.7200 Ang.)
 Radius for W  used is    4.4220 Bohr (=   2.3400 Ang.)
Calculating surface                               ...        done! (  0.0s)
GEPOL surface points                              ...          180
GEPOL Volume                                      ...     543.5394
GEPOL Surface-area                                ...     350.7135
Calculating surface distance matrix               ...        done! (  0.0s)
Performing Cholesky decomposition & store         ...        done! (  0.0s)
Overall time for CPCM initialization              ...                 0.0s
[compute-1-0.local:60515] 3 more processes have sent help message help-mpi-btl-base.txt / btl:no-nics
[compute-1-0.local:60515] Set MCA parameter "orte_base_help_aggregate" to 0 to see all help / error messages
--------------
SCF ITERATIONS
--------------
ITER       Energy         Delta-E        Max-DP      RMS-DP      [F,P]     Damp
               ***  Starting incremental Fock matrix formation  ***
  0   -292.5309598083   0.000000000000 0.29487068  0.00367216  0.4379339 0.7000
  1   -292.6623001925  -0.131340384156 0.19381953  0.00249514  0.3000498 0.7000
  2   -292.7316494310  -0.069349238492 0.11558692  0.00147802  0.2043806 0.7000
                               ***Turning on DIIS***
  3   -292.7731694670  -0.041520036045 0.07087359  0.00088343  0.1405873 0.7000
  4   -292.8007990975  -0.027629630434 0.14122399  0.00169597  0.0976842 0.0000
  5   -292.8639053616  -0.063106264160 0.00285187  0.00012207  0.0061744 0.0000
  6   -292.8640260572  -0.000120695554 0.00162022  0.00005458  0.0026952 0.0000
  7   -292.8640556955  -0.000029638301 0.00147590  0.00002651  0.0010842 0.0000
  8   -292.8640647485  -0.000009053036 0.00054032  0.00002178  0.0003839 0.0000
  9   -292.8640676017  -0.000002853138 0.00026827  0.00000714  0.0000936 0.0000
 10   -292.8640678371  -0.000000235473 0.00011575  0.00000270  0.0000555 0.0000
 11   -292.8640678703  -0.000000033188 0.00005208  0.00000120  0.0000155 0.0000
 12   -292.8640678750  -0.000000004642 0.00001161  0.00000029  0.0000099 0.0000
                 **** Energy Check signals convergence ****

               *****************************************************
               *                     SUCCESS                       *
               *           SCF CONVERGED AFTER  13 CYCLES          *
               *****************************************************

Setting up the final grid:

General Integration Accuracy     IntAcc      ...  4.670
Radial Grid Type                 RadialGrid  ... Gauss-Chebyshev
Angular Grid (max. acc.)         AngularGrid ... Lebedev-302
Angular grid pruning method      GridPruning ... 3 (G Style)
Weight generation scheme         WeightScheme... Becke
Basis function cutoff            BFCut       ...    1.0000e-11
Integration weight cutoff        WCut        ...    1.0000e-14
Grids for H and He will be reduced by one unit

# of grid points (after initial pruning)     ...  30288 (   0.0 sec)
# of grid points (after weights+screening)   ...  29920 (   0.0 sec)
nearest neighbour list constructed           ...    0.0 sec
Grid point re-assignment to atoms done       ...    0.0 sec
Grid point division into batches done        ...    0.3 sec
Reduced shell lists constructed in    0.4 sec

Total number of grid points                  ...    29920
Total number of batches                      ...      470
Average number of points per batch           ...       63
Average number of grid points per atom       ...     7480
Average number of shells per batch           ...    26.51 (56.41%)
Average number of basis functions per batch  ...    77.61 (58.35%)
Average number of large shells per batch     ...    21.27 (80.22%)
Average number of large basis fcns per batch ...    62.06 (79.97%)
Maximum spatial batch extension              ...  26.29, 23.67, 25.69 au
Average spatial batch extension              ...   1.08,  1.12,  1.25 au

Final grid set up in    0.4 sec
Final integration                            ... done (   0.2 sec)
Change in XC energy                          ...    -0.002827212
Integrated number of electrons               ...    37.999995328
Previous integrated no of electrons          ...    38.000239594

----------------
TOTAL SCF ENERGY
----------------

Total Energy       :         -292.86689509 Eh           -7969.31337 eV

Components:
Nuclear Repulsion  :          132.00961240 Eh            3592.16418 eV
Electronic Energy  :         -424.87650749 Eh          -11561.47754 eV
One Electron Energy:         -685.81081789 Eh          -18661.86111 eV
Two Electron Energy:          260.93431041 Eh            7100.38356 eV
CPCM Dielectric    :           -0.02073674 Eh              -0.56428 eV

Virial components:
Potential Energy   :         -540.08950975 Eh          -14696.58272 eV
Kinetic Energy     :          247.22261466 Eh            6727.26935 eV
Virial Ratio       :            2.18462826


DFT components:
N(Alpha)           :       18.999997664120 electrons
N(Beta)            :       18.999997664120 electrons
N(Total)           :       37.999995328240 electrons
E(XC)              :      -22.924759315844 Eh       
DFET-embed. en.    :        0.000000000000 Eh       
CPCM Solvation Model Properties:
Surface-charge          :           -0.02213860
Charge-correction       :            0.00039084 Eh               0.01064 eV
Free-energy (cav+disp)  :            0.00316375 Eh               0.08609 eV
Corrected G(solv)       :         -292.86334050 Eh           -7969.21664 eV

---------------
SCF CONVERGENCE
---------------

  Last Energy change         ...   -3.7016e-10  Tolerance :   1.0000e-08
  Last MAX-Density change    ...    9.0056e-06  Tolerance :   1.0000e-07
  Last RMS-Density change    ...    2.2849e-07  Tolerance :   5.0000e-09
  Last DIIS Error            ...    1.1948e-05  Tolerance :   5.0000e-07

             **** THE GBW FILE WAS UPDATED (WO3.gbw) ****
             **** DENSITY FILE WAS UPDATED (WO3.scfp) ****
             **** ENERGY FILE WAS UPDATED (WO3.en.tmp) ****
             **** THE GBW FILE WAS UPDATED (WO3.gbw) ****
             **** DENSITY FILE WAS UPDATED (WO3.scfp) ****
----------------
ORBITAL ENERGIES
----------------

  NO   OCC          E(Eh)            E(eV) 
   0   2.0000     -19.268179      -524.3138 
   1   2.0000     -19.268111      -524.3120 
   2   2.0000     -19.268053      -524.3104 
   3   2.0000      -3.235902       -88.0534 
   4   2.0000      -1.880314       -51.1659 
   5   2.0000      -1.871090       -50.9150 
   6   2.0000      -1.871015       -50.9129 
   7   2.0000      -1.071026       -29.1441 
   8   2.0000      -1.035655       -28.1816 
   9   2.0000      -1.035571       -28.1793 
  10   2.0000      -0.540237       -14.7006 
  11   2.0000      -0.540137       -14.6979 
  12   2.0000      -0.514116       -13.9898 
  13   2.0000      -0.504681       -13.7331 
  14   2.0000      -0.504621       -13.7314 
  15   2.0000      -0.431887       -11.7523 
  16   2.0000      -0.428121       -11.6498 
  17   2.0000      -0.428068       -11.6483 
  18   2.0000      -0.422314       -11.4918 
  19   0.0000      -0.129239        -3.5168 
  20   0.0000      -0.037161        -1.0112 
  21   0.0000      -0.037131        -1.0104 
  22   0.0000       0.084854         2.3090 
  23   0.0000       0.089088         2.4242 
  24   0.0000       0.089136         2.4255 
  25   0.0000       0.102408         2.7867 
  26   0.0000       0.167716         4.5638 
  27   0.0000       0.167733         4.5642 
  28   0.0000       0.271221         7.3803 
  29   0.0000       0.283645         7.7184 
  30   0.0000       0.283720         7.7204 
  31   0.0000       0.315069         8.5735 
  32   0.0000       0.335385         9.1263 
  33   0.0000       0.335526         9.1301 
  34   0.0000       0.539350        14.6765 
  35   0.0000       0.549170        14.9437 
  36   0.0000       0.549191        14.9442 
  37   0.0000       0.604628        16.4528 
  38   0.0000       0.615534        16.7495 
  39   0.0000       0.622992        16.9525 
  40   0.0000       0.623213        16.9585 
  41   0.0000       0.642326        17.4786 
  42   0.0000       0.686859        18.6904 
  43   0.0000       0.686915        18.6919 
  44   0.0000       0.739030        20.1100 
  45   0.0000       0.739103        20.1120 
  46   0.0000       0.874707        23.8020 
  47   0.0000       0.957984        26.0681 
  48   0.0000       0.958114        26.0716 
  49   0.0000       0.998843        27.1799 
  50   0.0000       0.999009        27.1844 
  51   0.0000       1.015221        27.6256 
  52   0.0000       1.030467        28.0404 
  53   0.0000       1.062468        28.9112 
  54   0.0000       1.062737        28.9186 
  55   0.0000       1.079211        29.3668 
  56   0.0000       1.087285        29.5865 
  57   0.0000       1.087454        29.5911 
  58   0.0000       1.401114        38.1262 
  59   0.0000       1.465027        39.8654 
  60   0.0000       1.465171        39.8693 
  61   0.0000       1.532028        41.6886 
  62   0.0000       1.604098        43.6497 
  63   0.0000       1.604550        43.6620 
  64   0.0000       1.614504        43.9329 
  65   0.0000       1.648226        44.8505 
  66   0.0000       1.648735        44.8644 
  67   0.0000       1.708208        46.4827 
  68   0.0000       1.946070        52.9553 
  69   0.0000       1.956314        53.2340 
  70   0.0000       1.956454        53.2378 
  71   0.0000       1.997268        54.3484 
  72   0.0000       1.997435        54.3530 
  73   0.0000       2.113246        57.5044 
  74   0.0000       2.113616        57.5144 
  75   0.0000       2.166198        58.9452 
  76   0.0000       2.260499        61.5113 
  77   0.0000       2.730104        74.2899 
  78   0.0000       2.775221        75.5176 
  79   0.0000       2.776707        75.5580 
  80   0.0000       2.808735        76.4296 
  81   0.0000       2.810146        76.4680 
  82   0.0000       2.867583        78.0309 
  83   0.0000       2.986113        81.2563 
  84   0.0000       2.986481        81.2663 
  85   0.0000       3.046579        82.9016 
  86   0.0000       3.451165        93.9110 
  87   0.0000       3.532792        96.1321 
  88   0.0000       3.533735        96.1578 
  89   0.0000       5.171305       140.7184 
  90   0.0000       5.182226       141.0156 
  91   0.0000       5.185628       141.1081 
  92   0.0000       5.192700       141.3005 
  93   0.0000       5.196676       141.4088 
  94   0.0000       5.199033       141.4729 
  95   0.0000       5.199971       141.4984 
  96   0.0000       5.201363       141.5363 
  97   0.0000       5.203420       141.5923 
  98   0.0000       5.207245       141.6963 
  99   0.0000       5.208137       141.7206 
 100   0.0000       5.209607       141.7606 
 101   0.0000       5.219879       142.0401 
 102   0.0000       5.223491       142.1384 
 103   0.0000       5.249895       142.8569 
 104   0.0000       5.257052       143.0516 
 105   0.0000       5.265054       143.2694 
 106   0.0000       5.286693       143.8582 
 107   0.0000       5.287373       143.8767 
 108   0.0000       5.456448       148.4775 
 109   0.0000       5.469031       148.8199 
 110   0.0000       6.268169       170.5656 
 111   0.0000       6.296471       171.3357 
 112   0.0000       6.297933       171.3755 
 113   0.0000       6.321940       172.0287 
 114   0.0000       6.322476       172.0433 
 115   0.0000       6.342709       172.5939 
 116   0.0000       6.484018       176.4391 
 117   0.0000       6.529543       177.6779 
 118   0.0000       6.532506       177.7585 
 119   0.0000       6.560562       178.5220 
 120   0.0000       6.562172       178.5658 
 121   0.0000       6.649842       180.9514 
 122   0.0000       6.762033       184.0043 
 123   0.0000       6.763100       184.0333 
 124   0.0000       6.868207       186.8934 
 125   0.0000      36.639114       997.0010 
 126   0.0000      42.323391      1151.6780 
 127   0.0000      42.323643      1151.6849 
 128   0.0000      43.364676      1180.0128 
 129   0.0000      43.477947      1183.0951 
 130   0.0000      43.478092      1183.0990 
 131   0.0000      70.491197      1918.1630 
 132   0.0000     583.322734     15873.0186 

                    ********************************
                    * MULLIKEN POPULATION ANALYSIS *
                    ********************************

-----------------------
MULLIKEN ATOMIC CHARGES
-----------------------
   0 O :   -0.567448
   1 O :   -0.567999
   2 O :   -0.567992
   3 W :    1.703439
Sum of atomic charges:   -0.0000000

--------------------------------
MULLIKEN REDUCED ORBITAL CHARGES
--------------------------------
  0 O s       :     3.911607  s :     3.911607
      pz      :     1.417614  p :     4.631144
      px      :     1.532284
      py      :     1.681247
      dz2     :     0.002033  d :     0.023687
      dxz     :     0.007651
      dyz     :     0.001559
      dx2y2   :     0.006196
      dxy     :     0.006249
      f0      :     0.000079  f :     0.001010
      f+1     :     0.000110
      f-1     :     0.000026
      f+2     :     0.000111
      f-2     :     0.000128
      f+3     :     0.000276
      f-3     :     0.000278
  1 O s       :     3.911911  s :     3.911911
      pz      :     1.417888  p :     4.631442
      px      :     1.575020
      py      :     1.638535
      dz2     :     0.002030  d :     0.023634
      dxz     :     0.005863
      dyz     :     0.003320
      dx2y2   :     0.006467
      dxy     :     0.005955
      f0      :     0.000084  f :     0.001012
      f+1     :     0.000086
      f-1     :     0.000050
      f+2     :     0.000034
      f-2     :     0.000207
      f+3     :     0.000274
      f-3     :     0.000277
  2 O s       :     3.911951  s :     3.911951
      pz      :     1.417589  p :     4.631401
      px      :     1.713569
      py      :     1.500243
      dz2     :     0.002041  d :     0.023629
      dxz     :     0.000271
      dyz     :     0.008904
      dx2y2   :     0.005941
      dxy     :     0.006473
      f0      :     0.000084  f :     0.001011
      f+1     :     0.000009
      f-1     :     0.000128
      f+2     :     0.000216
      f-2     :     0.000025
      f+3     :     0.000275
      f-3     :     0.000274
  3 W s       :     2.230524  s :     2.230524
      pz      :     2.162922  p :     6.415066
      px      :     2.126146
      py      :     2.125998
      dz2     :     0.378218  d :     3.483068
      dxz     :     0.753483
      dyz     :     0.752191
      dx2y2   :     0.799522
      dxy     :     0.799654
      f0      :     0.023542  f :     0.167903
      f+1     :     0.013163
      f-1     :     0.013221
      f+2     :     0.012880
      f-2     :     0.012901
      f+3     :     0.058473
      f-3     :     0.033723


                     *******************************
                     * LOEWDIN POPULATION ANALYSIS *
                     *******************************

----------------------
LOEWDIN ATOMIC CHARGES
----------------------
   0 O :   -0.379603
   1 O :   -0.379713
   2 O :   -0.379712
   3 W :    1.139028

-------------------------------
LOEWDIN REDUCED ORBITAL CHARGES
-------------------------------
  0 O s       :     3.696905  s :     3.696905
      pz      :     1.381463  p :     4.633818
      px      :     1.594828
      py      :     1.657528
      dz2     :     0.006358  d :     0.046013
      dxz     :     0.009794
      dyz     :     0.002038
      dx2y2   :     0.013531
      dxy     :     0.014292
      f0      :     0.000217  f :     0.002866
      f+1     :     0.000473
      f-1     :     0.000114
      f+2     :     0.000223
      f-2     :     0.000254
      f+3     :     0.000619
      f-3     :     0.000966
  1 O s       :     3.696947  s :     3.696947
      pz      :     1.381700  p :     4.633922
      px      :     1.612371
      py      :     1.639850
      dz2     :     0.006352  d :     0.045975
      dxz     :     0.007559
      dyz     :     0.004263
      dx2y2   :     0.009879
      dxy     :     0.017922
      f0      :     0.000221  f :     0.002869
      f+1     :     0.000370
      f-1     :     0.000216
      f+2     :     0.000072
      f-2     :     0.000406
      f+3     :     0.000618
      f-3     :     0.000966
  2 O s       :     3.696950  s :     3.696950
      pz      :     1.381534  p :     4.633914
      px      :     1.671590
      py      :     1.580790
      dz2     :     0.006352  d :     0.045980
      dxz     :     0.000387
      dyz     :     0.011466
      dx2y2   :     0.018266
      dxy     :     0.009509
      f0      :     0.000221  f :     0.002868
      f+1     :     0.000037
      f-1     :     0.000548
      f+2     :     0.000424
      f-2     :     0.000057
      f+3     :     0.000618
      f-3     :     0.000962
  3 W s       :     2.132815  s :     2.132815
      pz      :     2.170224  p :     6.549031
      px      :     2.189428
      py      :     2.189379
      dz2     :     0.421511  d :     3.892998
      dxz     :     0.791064
      dyz     :     0.789784
      dx2y2   :     0.945359
      dxy     :     0.945281
      f0      :     0.033271  f :     0.286128
      f+1     :     0.028708
      f-1     :     0.028734
      f+2     :     0.016780
      f-2     :     0.016804
      f+3     :     0.093529
      f-3     :     0.068303


                      *****************************
                      * MAYER POPULATION ANALYSIS *
                      *****************************

  NA   - Mulliken gross atomic population
  ZA   - Total nuclear charge
  QA   - Mulliken gross atomic charge
  VA   - Mayer's total valence
  BVA  - Mayer's bonded valence
  FA   - Mayer's free valence

  ATOM       NA         ZA         QA         VA         BVA        FA
  0 O      8.5674     8.0000    -0.5674     2.1518     2.1518    -0.0000
  1 O      8.5680     8.0000    -0.5680     2.1511     2.1511     0.0000
  2 O      8.5680     8.0000    -0.5680     2.1509     2.1509     0.0000
  3 W     12.2966    14.0000     1.7034     5.8190     5.8190    -0.0000

  Mayer bond orders larger than 0.100000
B(  0-O ,  1-O ) :   0.1059 B(  0-O ,  2-O ) :   0.1058 B(  0-O ,  3-W ) :   1.9402 
B(  1-O ,  2-O ) :   0.1058 B(  1-O ,  3-W ) :   1.9395 B(  2-O ,  3-W ) :   1.9393 


-------
TIMINGS
-------

Total SCF time: 0 days 0 hours 0 min 34 sec 

Total time                  ....      34.678 sec
Sum of individual times     ....      34.374 sec  ( 99.1%)

Fock matrix formation       ....      29.055 sec  ( 83.8%)
  XC integration            ....       0.915 sec  (  3.1% of F)
    Basis function eval.    ....       0.220 sec  ( 24.0% of XC)
    Density eval.           ....       0.160 sec  ( 17.5% of XC)
    XC-Functional eval.     ....       0.203 sec  ( 22.2% of XC)
    XC-Potential eval.      ....       0.258 sec  ( 28.2% of XC)
Diagonalization             ....       0.107 sec  (  0.3%)
Density matrix formation    ....       0.004 sec  (  0.0%)
Population analysis         ....       0.007 sec  (  0.0%)
Initial guess               ....       4.741 sec  ( 13.7%)
Orbital Transformation      ....       0.000 sec  (  0.0%)
Orbital Orthonormalization  ....       0.000 sec  (  0.0%)
DIIS solution               ....       0.031 sec  (  0.1%)
Grid generation             ....       0.430 sec  (  1.2%)


-------------------------------------------------------------------------------
                          DFT DISPERSION CORRECTION                            
                                                                               
                              DFTD3 V3.1  Rev 1                                
                              USING zero damping                               
-------------------------------------------------------------------------------
The omegaB97X-D3 functional is recognized. Fit by Chai et al.
Active option DFTDOPT                   ...         3   

molecular C6(AA) [au] = 1115.643908 


            DFT-D V3
 parameters
 s6 scaling factor         :     1.0000 
 rs6 scaling factor        :     1.2810 
 s8 scaling factor         :     1.0000 
 rs8 scaling factor        :     1.0940 
 Damping factor alpha6     :    14.0000 
 Damping factor alpha8     :    16.0000 
 ad hoc parameters k1-k3   :    16.0000     1.3333    -4.0000 

 Edisp/kcal,au: -0.268430270873  -0.000427770820 
 E6   /kcal   :  -0.063034584 
 E8   /kcal   :  -0.205395687 
 % E8         :  76.517334053 

-------------------------   ----------------
Dispersion correction           -0.000427771
-------------------------   ----------------


-------------------------   --------------------
FINAL SINGLE POINT ENERGY      -292.867322858118
-------------------------   --------------------

--------------------------------------------------------------------------
[[3743,1],0]: A high-performance Open MPI point-to-point messaging module
was unable to find any relevant network interfaces:

Module: OpenFabrics (openib)
  Host: compute-1-0

Another transport will be used instead, although this may result in
lower performance.

NOTE: You can disable this warning by setting the MCA parameter
btl_base_warn_component_unused to 0.
--------------------------------------------------------------------------


           ************************************************************
           *        Program running with 4 parallel MPI-processes     *
           *              working on a common directory               *
           ************************************************************
------------------------------------------------------------------------------
                         ORCA SCF GRADIENT CALCULATION
------------------------------------------------------------------------------

Gradient of the Kohn-Sham DFT energy:
Kohn-Sham wavefunction type      ... RKS
Hartree-Fock exchange scaling    ...    0.196
Number of operators              ...    1
Number of atoms                  ...    4
Basis set dimensions             ...  133
Integral neglect threshold       ... 2.5e-11
Integral primitive cutoff        ... 2.5e-12

Nuclear repulsion gradient       ... done
One Electron Gradient            
  ECP gradient                   ... done
Pre-screening matrix             ... done
Starting the two electron gradient:
[compute-1-0.local:60568] 3 more processes have sent help message help-mpi-btl-base.txt / btl:no-nics
[compute-1-0.local:60568] Set MCA parameter "orte_base_help_aggregate" to 0 to see all help / error messages
Two electron gradient done
Exchange-correlation gradient    ... done
Dispersion correction            ... done

------------------
CARTESIAN GRADIENT
------------------

   1   O   :   -0.060113700    0.026192090   -0.000896693
   2   O   :    0.052551129    0.038835005   -0.001153505
   3   O   :    0.007395352   -0.065034251    0.001959831
   4   W   :    0.000167219    0.000007155    0.000090367

Difference to translation invariance:
           :   -0.0000000000    0.0000000000   -0.0000000000

Norm of the cartesian gradient     ...    0.1134002565
RMS gradient                       ...    0.0327358343
MAX gradient                       ...    0.0650342509

-------
TIMINGS
-------

Total SCF gradient time            ...       12.258 sec

One electron gradient       ....       0.685 sec  (  5.6%)
Prescreening matrices       ....       0.124 sec  (  1.0%)
Two electron gradient       ....       8.796 sec  ( 71.8%)
XC gradient                 ....       0.636 sec  (  5.2%)
CPCM gradient               ....       0.179 sec  (  1.5%)
   A-Matrix (El+Nuc)        ....       0.002 sec  (  0.0%)
   Potential                ....       0.177 sec  (  1.4%)
------------------------------------------------------------------------------
                         ORCA GEOMETRY RELAXATION STEP
------------------------------------------------------------------------------

Reading the OPT-File                    .... done
Getting information on internals        .... done
Copying old internal coords+grads       .... done
Making the new internal coordinates     .... (new redundants).... done
Validating the new internal coordinates .... (new redundants).... done
Calculating the B-matrix                .... done
Calculating the G,G- and P matrices     .... done
Transforming gradient to internals      .... done
Projecting the internal gradient        .... done
Number of atoms                         ....   4
Number of internal coordinates          ....   7
Current Energy                          ....  -292.867322858 Eh
Current gradient norm                   ....     0.113400257 Eh/bohr
Maximum allowed component of the step   ....  0.300
Current trust radius                    ....  0.300
Evaluating the initial hessian          ....  (Almloef) done
Projecting the Hessian                  .... done
Forming the augmented Hessian           .... done
Diagonalizing the augmented Hessian     .... done
Last element of RFO vector              ....  0.947632811
Lowest eigenvalues of augmented Hessian:
 -0.038215703  0.033137605  0.298290239  0.298293451  0.336506704
Length of the computed step             ....  0.337010231
Warning: the length of the step is outside the trust region - taking restricted step instead
The input lambda is                     ....    -0.038216
   iter:   1  x=   -0.073127  g=    0.675314 f(x)=     0.023576
   iter:   2  x=   -0.079548  g=    0.502066 f(x)=     0.003224
   iter:   3  x=   -0.079719  g=    0.476890 f(x)=     0.000082
   iter:   4  x=   -0.079719  g=    0.476242 f(x)=     0.000000
   iter:   5  x=   -0.079719  g=    0.476241 f(x)=     0.000000
   iter:   6  x=   -0.079719  g=    0.476241 f(x)=     0.000000
The output lambda is                    ....    -0.079719 (6 iterations)
The final length of the internal step   ....  0.300000000
Converting the step to cartesian space:
 Initial RMS(Int)=    0.1133893419
Transforming coordinates:
 Iter   0:  RMS(Cart)=    0.0866031015 RMS(Int)=    0.1133890293
 Iter   1:  RMS(Cart)=    0.0000348620 RMS(Int)=    0.0000490745
 Iter   2:  RMS(Cart)=    0.0000018813 RMS(Int)=    0.0000026482
 Iter   3:  RMS(Cart)=    0.0000001015 RMS(Int)=    0.0000001428
 Iter   4:  RMS(Cart)=    0.0000000055 RMS(Int)=    0.0000000077
done
Storing new coordinates                 .... done

                                .--------------------.
          ----------------------|Geometry convergence|-------------------------
          Item                value                   Tolerance       Converged
          ---------------------------------------------------------------------
          RMS gradient        0.0428612831            0.0001000000      NO
          MAX gradient        0.0655780500            0.0003000000      NO
          RMS step            0.1133893419            0.0020000000      NO
          MAX step            0.1734824006            0.0040000000      NO
          ........................................................
          Max(Bonds)      0.0918      Max(Angles)    0.01
          Max(Dihed)        0.00      Max(Improp)    0.13
          ---------------------------------------------------------------------

The optimization has not yet converged - more geometry cycles are needed


    ---------------------------------------------------------------------------
                         Redundant Internal Coordinates
                            (Angstroem and degrees)

        Definition                    Value    dE/dq     Step     New-Value
    ----------------------------------------------------------------------------
     1. B(W   3,O   1)                1.7913  0.065354 -0.0915    1.6998   
     2. B(W   3,O   2)                1.7913  0.065483 -0.0917    1.6996   
     3. B(W   3,O   0)                1.7913  0.065578 -0.0918    1.6995   
     4. A(O   0,W   3,O   2)          120.00  0.000052   -0.01    119.99   
     5. A(O   1,W   3,O   2)          120.00 -0.000010    0.00    120.00   
     6. A(O   0,W   3,O   1)          120.00 -0.000041    0.01    120.01   
     7. I(O   0,O   2,O   1,W   3)      0.12 -0.000257    0.13      0.25   
    ----------------------------------------------------------------------------

         *************************************************************
         *                GEOMETRY OPTIMIZATION CYCLE   2            *
         *************************************************************
---------------------------------
CARTESIAN COORDINATES (ANGSTROEM)
---------------------------------
  O     -1.140821    1.730613   -0.094281
  O      1.784419    2.061402   -0.102467
  O      0.607953   -0.635960   -0.018892
  W      0.417129    1.051975   -0.074360

----------------------------
CARTESIAN COORDINATES (A.U.)
----------------------------
  NO LB      ZA    FRAG     MASS         X           Y           Z
   0 O     8.0000    0    15.999   -2.155840    3.270385   -0.178165
   1 O     8.0000    0    15.999    3.372063    3.895485   -0.193634
   2 O     8.0000    0    15.999    1.148865   -1.201790   -0.035701
   3 W    14.0000*   0   183.850    0.788260    1.987944   -0.140521
* core charge reduced due to ECP

--------------------------------
INTERNAL COORDINATES (ANGSTROEM)
--------------------------------
 O      0   0   0     0.000000000000     0.00000000     0.00000000
 O      1   0   0     2.943895344635     0.00000000     0.00000000
 O      1   2   0     2.943563217083    60.00486556     0.00000000
 W      1   2   3     1.699457866610    30.00038449   359.83273759

---------------------------
INTERNAL COORDINATES (A.U.)
---------------------------
 O      0   0   0     0.000000000000     0.00000000     0.00000000
 O      1   0   0     5.563155968285     0.00000000     0.00000000
 O      1   2   0     5.562528338171    60.00486556     0.00000000
 W      1   2   3     3.211509944031    30.00038449   359.83273759

--------------------------------------------------------------------------
[[3760,1],0]: A high-performance Open MPI point-to-point messaging module
was unable to find any relevant network interfaces:

Module: OpenFabrics (openib)
  Host: compute-1-0

Another transport will be used instead, although this may result in
lower performance.

NOTE: You can disable this warning by setting the MCA parameter
btl_base_warn_component_unused to 0.
--------------------------------------------------------------------------


           ************************************************************
           *        Program running with 4 parallel MPI-processes     *
           *              working on a common directory               *
           ************************************************************
[compute-1-0.local:60599] 3 more processes have sent help message help-mpi-btl-base.txt / btl:no-nics
[compute-1-0.local:60599] Set MCA parameter "orte_base_help_aggregate" to 0 to see all help / error messages
--------------------------------------------------------------------------
[[3787,1],1]: A high-performance Open MPI point-to-point messaging module
was unable to find any relevant network interfaces:

Module: OpenFabrics (openib)
  Host: compute-1-0

Another transport will be used instead, although this may result in
lower performance.

NOTE: You can disable this warning by setting the MCA parameter
btl_base_warn_component_unused to 0.
--------------------------------------------------------------------------


           ************************************************************
           *        Program running with 4 parallel MPI-processes     *
           *              working on a common directory               *
           ************************************************************

Diagonalization of the overlap matrix:
Smallest eigenvalue                        ... 2.047e-03
Time for diagonalization                   ...    0.007 sec
Threshold for overlap eigenvalues          ... 1.000e-08
Number of eigenvalues below threshold      ... 0
Time for construction of square roots      ...    0.003 sec
Total time needed                          ...    0.010 sec

-------------------
DFT GRID GENERATION
-------------------

General Integration Accuracy     IntAcc      ...  4.340
Radial Grid Type                 RadialGrid  ... Gauss-Chebyshev
Angular Grid (max. acc.)         AngularGrid ... Lebedev-110
Angular grid pruning method      GridPruning ... 3 (G Style)
Weight generation scheme         WeightScheme... Becke
Basis function cutoff            BFCut       ...    1.0000e-11
Integration weight cutoff        WCut        ...    1.0000e-14
Grids for H and He will be reduced by one unit

# of grid points (after initial pruning)     ...   8678 (   0.0 sec)
# of grid points (after weights+screening)   ...   8586 (   0.0 sec)
nearest neighbour list constructed           ...    0.0 sec
Grid point re-assignment to atoms done       ...    0.0 sec
Grid point division into batches done        ...    0.0 sec
Reduced shell lists constructed in    0.0 sec

Total number of grid points                  ...     8586
Total number of batches                      ...      137
Average number of points per batch           ...       62
Average number of grid points per atom       ...     2146
Average number of shells per batch           ...    29.78 (63.36%)
Average number of basis functions per batch  ...    88.06 (66.21%)
Average number of large shells per batch     ...    24.86 (83.49%)
Average number of large basis fcns per batch ...    72.53 (82.37%)
Maximum spatial batch extension              ...  33.98, 42.22, 40.43 au
Average spatial batch extension              ...   1.99,  2.04,  2.12 au

Time for grid setup =    0.049 sec


--------------------
CPCM SOLVATION MODEL
--------------------
CPCM parameters:
  Epsilon                                         ...       3.0000
  Refrac                                          ...       1.3300
  Rsolv                                           ...       1.3000
  Surface type                                    ...    GEPOL SES
  Epsilon function type                           ...         CPCM
Radii:
 Radius for O  used is    3.2503 Bohr (=   1.7200 Ang.)
 Radius for W  used is    4.4220 Bohr (=   2.3400 Ang.)
Calculating surface                               ...        done! (  0.0s)
GEPOL surface points                              ...          175
GEPOL Volume                                      ...     525.8287
GEPOL Surface-area                                ...     339.3453
Calculating surface distance matrix               ...        done! (  0.0s)
Performing Cholesky decomposition & store         ...        done! (  0.0s)
Overall time for CPCM initialization              ...                 0.0s
--------------
SCF ITERATIONS
--------------
ITER       Energy         Delta-E        Max-DP      RMS-DP      [F,P]     Damp
               ***  Starting incremental Fock matrix formation  ***
  0   -292.8610242501   0.000000000000 0.01067167  0.00025347  1.0847831 0.7000
  1   -292.8646359547  -0.003611704653 0.00977837  0.00021349  0.7598240 0.7000
[compute-1-0.local:60620] 3 more processes have sent help message help-mpi-btl-base.txt / btl:no-nics
[compute-1-0.local:60620] Set MCA parameter "orte_base_help_aggregate" to 0 to see all help / error messages
  2   -292.8671252419  -0.002489287179 0.00780471  0.00016427  0.5320430 0.7000
  3   -292.8689252060  -0.001799964104 0.00623819  0.00013057  0.3725333 0.7000
  4   -292.8702359206  -0.001310714609 0.00507577  0.00010621  0.2608381 0.7000
                               ***Turning on DIIS***
  5   -292.8711878027  -0.000951882070 0.00416870  0.00008729  0.1826289 0.7000
  6   -292.8718785859  -0.000690783183 0.00390152  0.00008279  0.1278681 0.7000
  7   -292.8723820016  -0.000503415707 0.01144942  0.00024315  0.0895089 0.0000
  8   -292.8736659872  -0.001283985642 0.00206620  0.00004787  0.0014062 0.0000
  9   -292.8736883967  -0.000022409452 0.00329469  0.00008261  0.0009525 0.0000
 10   -292.8737096998  -0.000021303163 0.00108016  0.00002656  0.0002726 0.0000
 11   -292.8737112722  -0.000001572347 0.00022306  0.00000496  0.0002626 0.0000
 12   -292.8737116257  -0.000000353562 0.00010499  0.00000232  0.0000666 0.0000
 13   -292.8737116556  -0.000000029818 0.00002305  0.00000057  0.0000126 0.0000
 14   -292.8737116578  -0.000000002223 0.00000434  0.00000020  0.0000039 0.0000
 15   -292.8737116574   0.000000000339 0.00000183  0.00000009  0.0000010 0.0000
                 **** Energy Check signals convergence ****

               *****************************************************
               *                     SUCCESS                       *
               *           SCF CONVERGED AFTER  16 CYCLES          *
               *****************************************************

Setting up the final grid:

General Integration Accuracy     IntAcc      ...  4.670
Radial Grid Type                 RadialGrid  ... Gauss-Chebyshev
Angular Grid (max. acc.)         AngularGrid ... Lebedev-302
Angular grid pruning method      GridPruning ... 3 (G Style)
Weight generation scheme         WeightScheme... Becke
Basis function cutoff            BFCut       ...    1.0000e-11
Integration weight cutoff        WCut        ...    1.0000e-14
Grids for H and He will be reduced by one unit

# of grid points (after initial pruning)     ...  30288 (   0.0 sec)
# of grid points (after weights+screening)   ...  29893 (   0.0 sec)
nearest neighbour list constructed           ...    0.0 sec
Grid point re-assignment to atoms done       ...    0.0 sec
Grid point division into batches done        ...    0.3 sec
Reduced shell lists constructed in    0.4 sec

Total number of grid points                  ...    29893
Total number of batches                      ...      470
Average number of points per batch           ...       63
Average number of grid points per atom       ...     7473
Average number of shells per batch           ...    27.00 (57.45%)
Average number of basis functions per batch  ...    79.30 (59.63%)
Average number of large shells per batch     ...    21.95 (81.29%)
Average number of large basis fcns per batch ...    64.05 (80.77%)
Maximum spatial batch extension              ...  25.64, 23.73, 25.69 au
Average spatial batch extension              ...   1.05,  1.12,  1.22 au

Final grid set up in    0.4 sec
Final integration                            ... done (   0.2 sec)
Change in XC energy                          ...    -0.002900389
Integrated number of electrons               ...    38.000007585
Previous integrated no of electrons          ...    38.000452966
Total Energy       :         -292.87661205 Eh           -7969.57778 eV
  Last Energy change         ...    2.8365e-10  Tolerance :   1.0000e-08
  Last MAX-Density change    ...    9.9509e-07  Tolerance :   1.0000e-07
             **** THE GBW FILE WAS UPDATED (WO3.gbw) ****
             **** DENSITY FILE WAS UPDATED (WO3.scfp) ****
             **** ENERGY FILE WAS UPDATED (WO3.en.tmp) ****
             **** THE GBW FILE WAS UPDATED (WO3.gbw) ****
             **** DENSITY FILE WAS UPDATED (WO3.scfp) ****
Total SCF time: 0 days 0 hours 0 min 37 sec 


-------------------------------------------------------------------------------
                          DFT DISPERSION CORRECTION                            
                                                                               
                              DFTD3 V3.1  Rev 1                                
                              USING zero damping                               
-------------------------------------------------------------------------------
-------------------------   ----------------
Dispersion correction           -0.000391160
-------------------------   ----------------


-------------------------   --------------------
FINAL SINGLE POINT ENERGY      -292.877003205603
-------------------------   --------------------

--------------------------------------------------------------------------
[[3832,1],0]: A high-performance Open MPI point-to-point messaging module
was unable to find any relevant network interfaces:

Module: OpenFabrics (openib)
  Host: compute-1-0

Another transport will be used instead, although this may result in
lower performance.

NOTE: You can disable this warning by setting the MCA parameter
btl_base_warn_component_unused to 0.
--------------------------------------------------------------------------


           ************************************************************
           *        Program running with 4 parallel MPI-processes     *
           *              working on a common directory               *
           ************************************************************
------------------------------------------------------------------------------
                         ORCA SCF GRADIENT CALCULATION
------------------------------------------------------------------------------

Gradient of the Kohn-Sham DFT energy:
Kohn-Sham wavefunction type      ... RKS
Hartree-Fock exchange scaling    ...    0.196
Number of operators              ...    1
Number of atoms                  ...    4
Basis set dimensions             ...  133
Integral neglect threshold       ... 2.5e-11
Integral primitive cutoff        ... 2.5e-12

Nuclear repulsion gradient       ... done
One Electron Gradient            
  ECP gradient                   ... done
Pre-screening matrix             ... done
Starting the two electron gradient:
[compute-1-0.local:60671] 3 more processes have sent help message help-mpi-btl-base.txt / btl:no-nics
[compute-1-0.local:60671] Set MCA parameter "orte_base_help_aggregate" to 0 to see all help / error messages
Two electron gradient done
Exchange-correlation gradient    ... done
Dispersion correction            ... done

------------------
CARTESIAN GRADIENT
------------------

   1   O   :    0.033626419   -0.014640515    0.000255432
   2   O   :   -0.028997250   -0.021226745    0.000432315
   3   O   :   -0.003990676    0.036092184   -0.001444815
   4   W   :   -0.000638492   -0.000224924    0.000757068

Difference to translation invariance:
           :   -0.0000000000    0.0000000000   -0.0000000000

Norm of the cartesian gradient     ...    0.0629161206
RMS gradient                       ...    0.0181623196
MAX gradient                       ...    0.0360921838

-------
TIMINGS
-------

Total SCF gradient time            ...       12.232 sec

One electron gradient       ....       0.741 sec  (  6.1%)
Prescreening matrices       ....       0.136 sec  (  1.1%)
Two electron gradient       ....       9.758 sec  ( 79.8%)
XC gradient                 ....       0.558 sec  (  4.6%)
CPCM gradient               ....       0.176 sec  (  1.4%)
   A-Matrix (El+Nuc)        ....       0.002 sec  (  0.0%)
   Potential                ....       0.174 sec  (  1.4%)
------------------------------------------------------------------------------
                         ORCA GEOMETRY RELAXATION STEP
------------------------------------------------------------------------------

Reading the OPT-File                    .... done
Getting information on internals        .... done
Copying old internal coords+grads       .... done
Making the new internal coordinates     .... (new redundants).... done
Validating the new internal coordinates .... (new redundants).... done
Calculating the B-matrix                .... done
Calculating the G,G- and P matrices     .... done
Transforming gradient to internals      .... done
Projecting the internal gradient        .... done
Number of atoms                         ....   4
Number of internal coordinates          ....   7
Current Energy                          ....  -292.877003206 Eh
Current gradient norm                   ....     0.062916121 Eh/bohr
Maximum allowed component of the step   ....  0.300
Current trust radius                    ....  0.300
Updating the Hessian (BFGS)             .... done
Forming the augmented Hessian           .... done
Diagonalizing the augmented Hessian     .... done
Last element of RFO vector              ....  0.994379476
Lowest eigenvalues of augmented Hessian:
 -0.006663461  0.033140477  0.298288721  0.298291359  0.363540215
Length of the computed step             ....  0.106473164
The final length of the internal step   ....  0.106473164
Converting the step to cartesian space:
 Initial RMS(Int)=    0.0402430733
Transforming coordinates:
 Iter   0:  RMS(Cart)=    0.0307017155 RMS(Int)=    0.0402498856
 Iter   1:  RMS(Cart)=    0.0000610777 RMS(Int)=    0.0000842582
 Iter   2:  RMS(Cart)=    0.0000011985 RMS(Int)=    0.0000016415
 Iter   3:  RMS(Cart)=    0.0000000217 RMS(Int)=    0.0000000297
done
Storing new coordinates                 .... done

                                .--------------------.
          ----------------------|Geometry convergence|-------------------------
          Item                value                   Tolerance       Converged
          ---------------------------------------------------------------------
          Energy change      -0.0096803475            0.0000050000      NO
          RMS gradient        0.0237778414            0.0001000000      NO
          MAX gradient        0.0366758414            0.0003000000      NO
          RMS step            0.0402430733            0.0020000000      NO
          MAX step            0.0618172398            0.0040000000      NO
          ........................................................
          Max(Bonds)      0.0327      Max(Angles)    0.02
          Max(Dihed)        0.00      Max(Improp)    0.68
          ---------------------------------------------------------------------

The optimization has not yet converged - more geometry cycles are needed


    ---------------------------------------------------------------------------
                         Redundant Internal Coordinates
                            (Angstroem and degrees)

        Definition                    Value    dE/dq     Step     New-Value
    ----------------------------------------------------------------------------
     1. B(W   3,O   1)                1.6998 -0.035938  0.0319    1.7317   
     2. B(W   3,O   2)                1.6996 -0.036340  0.0323    1.7319   
     3. B(W   3,O   0)                1.6995 -0.036676  0.0327    1.7322   
     4. A(O   0,W   3,O   2)          119.99  0.000109   -0.01    119.98   
     5. A(O   1,W   3,O   2)          120.00  0.000066   -0.01    119.99   
     6. A(O   0,W   3,O   1)          120.01 -0.000172    0.02    120.02   
     7. I(O   0,O   2,O   1,W   3)      0.25 -0.000633    0.68      0.93   
    ----------------------------------------------------------------------------

         *************************************************************
         *                GEOMETRY OPTIMIZATION CYCLE   3            *
         *************************************************************
---------------------------------
CARTESIAN COORDINATES (ANGSTROEM)
---------------------------------
  O     -1.170730    1.743597   -0.092979
  O      1.810391    2.080342   -0.101310
  O      0.611709   -0.667868   -0.016160
  W      0.417310    1.051959   -0.079551

----------------------------
CARTESIAN COORDINATES (A.U.)
----------------------------
  NO LB      ZA    FRAG     MASS         X           Y           Z
   0 O     8.0000    0    15.999   -2.212358    3.294921   -0.175704
   1 O     8.0000    0    15.999    3.421142    3.931278   -0.191449
   2 O     8.0000    0    15.999    1.155963   -1.262088   -0.030538
   3 W    14.0000*   0   183.850    0.788601    1.987914   -0.150330
* core charge reduced due to ECP

--------------------------------
INTERNAL COORDINATES (ANGSTROEM)
--------------------------------
 O      0   0   0     0.000000000000     0.00000000     0.00000000
 O      1   0   0     3.000090697046     0.00000000     0.00000000
 O      2   1   0     2.999458353152    59.99819252     0.00000000
 W      2   1   3     1.731681645454    29.99450396     0.62208864

---------------------------
INTERNAL COORDINATES (A.U.)
---------------------------
 O      0   0   0     0.000000000000     0.00000000     0.00000000
 O      1   0   0     5.669349794342     0.00000000     0.00000000
 O      2   1   0     5.668154837560    59.99819252     0.00000000
 W      2   1   3     3.272404061047    29.99450396     0.62208864

--------------------------------------------------------------------------
[[3865,1],0]: A high-performance Open MPI point-to-point messaging module
was unable to find any relevant network interfaces:

Module: OpenFabrics (openib)
  Host: compute-1-0

Another transport will be used instead, although this may result in
lower performance.

NOTE: You can disable this warning by setting the MCA parameter
btl_base_warn_component_unused to 0.
--------------------------------------------------------------------------


           ************************************************************
           *        Program running with 4 parallel MPI-processes     *
           *              working on a common directory               *
           ************************************************************
[compute-1-0.local:60702] 3 more processes have sent help message help-mpi-btl-base.txt / btl:no-nics
[compute-1-0.local:60702] Set MCA parameter "orte_base_help_aggregate" to 0 to see all help / error messages
--------------------------------------------------------------------------
[[3892,1],1]: A high-performance Open MPI point-to-point messaging module
was unable to find any relevant network interfaces:

Module: OpenFabrics (openib)
  Host: compute-1-0

Another transport will be used instead, although this may result in
lower performance.

NOTE: You can disable this warning by setting the MCA parameter
btl_base_warn_component_unused to 0.
--------------------------------------------------------------------------


           ************************************************************
           *        Program running with 4 parallel MPI-processes     *
           *              working on a common directory               *
           ************************************************************

Diagonalization of the overlap matrix:
Smallest eigenvalue                        ... 2.305e-03
Time for diagonalization                   ...    0.007 sec
Threshold for overlap eigenvalues          ... 1.000e-08
Number of eigenvalues below threshold      ... 0
Time for construction of square roots      ...    0.003 sec
Total time needed                          ...    0.010 sec

-------------------
DFT GRID GENERATION
-------------------

General Integration Accuracy     IntAcc      ...  4.340
Radial Grid Type                 RadialGrid  ... Gauss-Chebyshev
Angular Grid (max. acc.)         AngularGrid ... Lebedev-110
Angular grid pruning method      GridPruning ... 3 (G Style)
Weight generation scheme         WeightScheme... Becke
Basis function cutoff            BFCut       ...    1.0000e-11
Integration weight cutoff        WCut        ...    1.0000e-14
Grids for H and He will be reduced by one unit

# of grid points (after initial pruning)     ...   8678 (   0.0 sec)
# of grid points (after weights+screening)   ...   8587 (   0.0 sec)
nearest neighbour list constructed           ...    0.0 sec
Grid point re-assignment to atoms done       ...    0.0 sec
Grid point division into batches done        ...    0.0 sec
Reduced shell lists constructed in    0.0 sec

Total number of grid points                  ...     8587
Total number of batches                      ...      137
Average number of points per batch           ...       62
Average number of grid points per atom       ...     2147
Average number of shells per batch           ...    29.39 (62.53%)
Average number of basis functions per batch  ...    86.39 (64.95%)
Average number of large shells per batch     ...    24.53 (83.46%)
Average number of large basis fcns per batch ...    71.14 (82.35%)
Maximum spatial batch extension              ...  33.82, 42.22, 49.51 au
Average spatial batch extension              ...   1.96,  2.00,  2.09 au

Time for grid setup =    0.052 sec


--------------------
CPCM SOLVATION MODEL
--------------------
CPCM parameters:
  Epsilon                                         ...       3.0000
  Refrac                                          ...       1.3300
  Rsolv                                           ...       1.3000
  Surface type                                    ...    GEPOL SES
  Epsilon function type                           ...         CPCM
Radii:
 Radius for O  used is    3.2503 Bohr (=   1.7200 Ang.)
 Radius for W  used is    4.4220 Bohr (=   2.3400 Ang.)
Calculating surface                               ...        done! (  0.0s)
GEPOL surface points                              ...          177
GEPOL Volume                                      ...     532.1248
GEPOL Surface-area                                ...     343.3577
Calculating surface distance matrix               ...        done! (  0.0s)
Performing Cholesky decomposition & store         ...        done! (  0.0s)
Overall time for CPCM initialization              ...                 0.0s
--------------
SCF ITERATIONS
--------------
ITER       Energy         Delta-E        Max-DP      RMS-DP      [F,P]     Damp
               ***  Starting incremental Fock matrix formation  ***
  0   -292.8746198947   0.000000000000 0.00356990  0.00009626  0.4403934 0.7000
  1   -292.8751561438  -0.000536249127 0.00334396  0.00008077  0.3084750 0.7000
[compute-1-0.local:60723] 3 more processes have sent help message help-mpi-btl-base.txt / btl:no-nics
[compute-1-0.local:60723] Set MCA parameter "orte_base_help_aggregate" to 0 to see all help / error messages
  2   -292.8755270966  -0.000370952867 0.00270558  0.00006238  0.2160015 0.7000
                               ***Turning on DIIS***
  3   -292.8757967516  -0.000269654980 0.00219626  0.00004993  0.1512424 0.7000
  4   -292.8759937338  -0.000196982220 0.00207194  0.00004688  0.1058948 0.7000
  5   -292.8761379566  -0.000144222775 0.00616100  0.00013640  0.0741303 0.0000
  6   -292.8765095872  -0.000371630534 0.00170801  0.00004013  0.0007206 0.0000
  7   -292.8765198049  -0.000010217708 0.00144896  0.00003756  0.0003705 0.0000
  8   -292.8765240585  -0.000004253593 0.00038263  0.00000966  0.0002810 0.0000
  9   -292.8765246276  -0.000000569166 0.00021829  0.00000657  0.0001860 0.0000
 10   -292.8765248633  -0.000000235667 0.00006142  0.00000233  0.0000320 0.0000
 11   -292.8765248971  -0.000000033788 0.00004399  0.00000160  0.0000189 0.0000
 12   -292.8765249097  -0.000000012625 0.00002939  0.00000110  0.0000099 0.0000
                 **** Energy Check signals convergence ****

               *****************************************************
               *                     SUCCESS                       *
               *           SCF CONVERGED AFTER  13 CYCLES          *
               *****************************************************

Setting up the final grid:

General Integration Accuracy     IntAcc      ...  4.670
Radial Grid Type                 RadialGrid  ... Gauss-Chebyshev
Angular Grid (max. acc.)         AngularGrid ... Lebedev-302
Angular grid pruning method      GridPruning ... 3 (G Style)
Weight generation scheme         WeightScheme... Becke
Basis function cutoff            BFCut       ...    1.0000e-11
Integration weight cutoff        WCut        ...    1.0000e-14
Grids for H and He will be reduced by one unit

# of grid points (after initial pruning)     ...  30288 (   0.0 sec)
# of grid points (after weights+screening)   ...  29905 (   0.0 sec)
nearest neighbour list constructed           ...    0.0 sec
Grid point re-assignment to atoms done       ...    0.0 sec
Grid point division into batches done        ...    0.3 sec
Reduced shell lists constructed in    0.3 sec

Total number of grid points                  ...    29905
Total number of batches                      ...      469
Average number of points per batch           ...       63
Average number of grid points per atom       ...     7476
Average number of shells per batch           ...    26.82 (57.05%)
Average number of basis functions per batch  ...    78.73 (59.20%)
[...]
[compute-1-0.local:64936] Set MCA parameter "orte_base_help_aggregate" to 0 to see all help / error messages
--------------------------------------------------------------------------
[[8122,1],0]: A high-performance Open MPI point-to-point messaging module
was unable to find any relevant network interfaces:

Module: OpenFabrics (openib)
  Host: compute-1-0

Another transport will be used instead, although this may result in
lower performance.

NOTE: You can disable this warning by setting the MCA parameter
btl_base_warn_component_unused to 0.
--------------------------------------------------------------------------


           ************************************************************
           *        Program running with 4 parallel MPI-processes     *
           *              working on a common directory               *
           ************************************************************

Diagonalization of the overlap matrix:
Smallest eigenvalue                        ... 2.439e-03
Time for diagonalization                   ...    0.007 sec
Threshold for overlap eigenvalues          ... 1.000e-08
Number of eigenvalues below threshold      ... 0
Time for construction of square roots      ...    0.003 sec
Total time needed                          ...    0.010 sec

-------------------
DFT GRID GENERATION
-------------------

General Integration Accuracy     IntAcc      ...  4.340
Radial Grid Type                 RadialGrid  ... Gauss-Chebyshev
Angular Grid (max. acc.)         AngularGrid ... Lebedev-110
Angular grid pruning method      GridPruning ... 3 (G Style)
Weight generation scheme         WeightScheme... Becke
Basis function cutoff            BFCut       ...    1.0000e-11
Integration weight cutoff        WCut        ...    1.0000e-14
Grids for H and He will be reduced by one unit

# of grid points (after initial pruning)     ...   8678 (   0.0 sec)
# of grid points (after weights+screening)   ...   8596 (   0.0 sec)
nearest neighbour list constructed           ...    0.0 sec
Grid point re-assignment to atoms done       ...    0.0 sec
Grid point division into batches done        ...    0.0 sec
Reduced shell lists constructed in    0.0 sec

Total number of grid points                  ...     8596
Total number of batches                      ...      137
Average number of points per batch           ...       62
Average number of grid points per atom       ...     2149
Average number of shells per batch           ...    29.53 (62.83%)
Average number of basis functions per batch  ...    87.03 (65.43%)
Average number of large shells per batch     ...    24.19 (81.94%)
Average number of large basis fcns per batch ...    70.36 (80.85%)
Maximum spatial batch extension              ...  24.61, 24.82, 28.86 au
Average spatial batch extension              ...   1.83,  1.73,  1.95 au

Time for grid setup =    0.050 sec


--------------------
CPCM SOLVATION MODEL
--------------------
CPCM parameters:
  Epsilon                                         ...       3.0000
  Refrac                                          ...       1.3300
  Rsolv                                           ...       1.3000
  Surface type                                    ...    GEPOL SES
  Epsilon function type                           ...         CPCM
Radii:
 Radius for O  used is    3.2503 Bohr (=   1.7200 Ang.)
 Radius for W  used is    4.4220 Bohr (=   2.3400 Ang.)
Calculating surface                               ...        done! (  0.0s)
GEPOL surface points                              ...          168
GEPOL Volume                                      ...     530.8483
GEPOL Surface-area                                ...     342.6337
Calculating surface distance matrix               ...        done! (  0.0s)
Performing Cholesky decomposition & store         ...        done! (  0.0s)
Overall time for CPCM initialization              ...                 0.0s
--------------
SCF ITERATIONS
--------------
ITER       Energy         Delta-E        Max-DP      RMS-DP      [F,P]     Damp
               ***  Starting incremental Fock matrix formation  ***
  0   -292.8857369015   0.000000000000 0.00016718  0.00000616  0.0171169 0.7000
[compute-1-0.local:64957] 3 more processes have sent help message help-mpi-btl-base.txt / btl:no-nics
[compute-1-0.local:64957] Set MCA parameter "orte_base_help_aggregate" to 0 to see all help / error messages
  1   -292.8857390587  -0.000002157182 0.00016970  0.00000603  0.0119895 0.7000
                               ***Turning on DIIS***
  2   -292.8857409013  -0.000001842588 0.00048143  0.00001693  0.0083953 0.0000
  3   -292.8857463667  -0.000005465431 0.00018603  0.00000703  0.0002091 0.0000
  4   -292.8857469324  -0.000000565637 0.00009001  0.00000371  0.0000690 0.0000
  5   -292.8857470150  -0.000000082612 0.00002454  0.00000099  0.0000657 0.0000
  6   -292.8857470269  -0.000000011904 0.00001090  0.00000048  0.0000255 0.0000
  7   -292.8857470297  -0.000000002825 0.00000661  0.00000027  0.0000041 0.0000
  8   -292.8857470301  -0.000000000335 0.00000612  0.00000017  0.0000025 0.0000
  9   -292.8857470299   0.000000000151 0.00000191  0.00000008  0.0000033 0.0000
                 **** Energy Check signals convergence ****

               *****************************************************
               *                     SUCCESS                       *
               *           SCF CONVERGED AFTER  10 CYCLES          *
               *****************************************************

Setting up the final grid:

General Integration Accuracy     IntAcc      ...  4.670
Radial Grid Type                 RadialGrid  ... Gauss-Chebyshev
Angular Grid (max. acc.)         AngularGrid ... Lebedev-302
Angular grid pruning method      GridPruning ... 3 (G Style)
Weight generation scheme         WeightScheme... Becke
Basis function cutoff            BFCut       ...    1.0000e-11
Integration weight cutoff        WCut        ...    1.0000e-14
Grids for H and He will be reduced by one unit

# of grid points (after initial pruning)     ...  30288 (   0.0 sec)
# of grid points (after weights+screening)   ...  29910 (   0.0 sec)
nearest neighbour list constructed           ...    0.0 sec
Grid point re-assignment to atoms done       ...    0.0 sec
Grid point division into batches done        ...    0.3 sec
Reduced shell lists constructed in    0.3 sec

Total number of grid points                  ...    29910
Total number of batches                      ...      470
Average number of points per batch           ...       63
Average number of grid points per atom       ...     7478
Average number of shells per batch           ...    26.99 (57.43%)
Average number of basis functions per batch  ...    79.16 (59.52%)
Average number of large shells per batch     ...    21.99 (81.48%)
Average number of large basis fcns per batch ...    64.21 (81.11%)
Maximum spatial batch extension              ...  25.68, 23.94, 25.23 au
Average spatial batch extension              ...   1.08,  1.13,  1.23 au

Final grid set up in    0.4 sec
Final integration                            ... done (   0.2 sec)
Change in XC energy                          ...    -0.002805368
Integrated number of electrons               ...    38.000002818
Previous integrated no of electrons          ...    38.000197618
Total Energy       :         -292.88855240 Eh           -7969.90269 eV
  Last Energy change         ...    1.2761e-10  Tolerance :   1.0000e-08
  Last MAX-Density change    ...    1.5622e-06  Tolerance :   1.0000e-07
             **** THE GBW FILE WAS UPDATED (WO3.gbw) ****
             **** DENSITY FILE WAS UPDATED (WO3.scfp) ****
             **** ENERGY FILE WAS UPDATED (WO3.en.tmp) ****
             **** THE GBW FILE WAS UPDATED (WO3.gbw) ****
             **** DENSITY FILE WAS UPDATED (WO3.scfp) ****
Total SCF time: 0 days 0 hours 0 min 24 sec 


-------------------------------------------------------------------------------
                          DFT DISPERSION CORRECTION                            
                                                                               
                              DFTD3 V3.1  Rev 1                                
                              USING zero damping                               
-------------------------------------------------------------------------------
-------------------------   ----------------
Dispersion correction           -0.000397452
-------------------------   ----------------


-------------------------   --------------------
FINAL SINGLE POINT ENERGY      -292.888949849277
-------------------------   --------------------

--------------------------------------------------------------------------
[[8162,1],1]: A high-performance Open MPI point-to-point messaging module
was unable to find any relevant network interfaces:

Module: OpenFabrics (openib)
  Host: compute-1-0

Another transport will be used instead, although this may result in
lower performance.

NOTE: You can disable this warning by setting the MCA parameter
btl_base_warn_component_unused to 0.
--------------------------------------------------------------------------


           ************************************************************
           *        Program running with 4 parallel MPI-processes     *
           *              working on a common directory               *
           ************************************************************
------------------------------------------------------------------------------
                         ORCA SCF GRADIENT CALCULATION
------------------------------------------------------------------------------

Gradient of the Kohn-Sham DFT energy:
Kohn-Sham wavefunction type      ... RKS
Hartree-Fock exchange scaling    ...    0.196
Number of operators              ...    1
Number of atoms                  ...    4
Basis set dimensions             ...  133
Integral neglect threshold       ... 2.5e-11
Integral primitive cutoff        ... 2.5e-12

Nuclear repulsion gradient       ... done
One Electron Gradient            
  ECP gradient                   ... done
Pre-screening matrix             ... done
Starting the two electron gradient:
[compute-1-0.local:64997] 3 more processes have sent help message help-mpi-btl-base.txt / btl:no-nics
[compute-1-0.local:64997] Set MCA parameter "orte_base_help_aggregate" to 0 to see all help / error messages
Two electron gradient done
Exchange-correlation gradient    ... done
Dispersion correction            ... done

------------------
CARTESIAN GRADIENT
------------------

   1   O   :   -0.004307786    0.001665411   -0.011493863
   2   O   :    0.005850282    0.001768889   -0.010625707
   3   O   :    0.001997832   -0.001404646   -0.011254741
   4   W   :   -0.003540329   -0.002029655    0.033374311

Difference to translation invariance:
           :    0.0000000000    0.0000000000    0.0000000000

Norm of the cartesian gradient     ...    0.0395832235
RMS gradient                       ...    0.0114266924
MAX gradient                       ...    0.0333743114

-------
TIMINGS
-------

Total SCF gradient time            ...       13.240 sec

One electron gradient       ....       0.763 sec  (  5.8%)
Prescreening matrices       ....       0.137 sec  (  1.0%)
Two electron gradient       ....       9.875 sec  ( 74.6%)
XC gradient                 ....       0.647 sec  (  4.9%)
CPCM gradient               ....       0.168 sec  (  1.3%)
   A-Matrix (El+Nuc)        ....       0.002 sec  (  0.0%)
   Potential                ....       0.166 sec  (  1.3%)
------------------------------------------------------------------------------
                         ORCA GEOMETRY RELAXATION STEP
------------------------------------------------------------------------------

Reading the OPT-File                    .... done
Getting information on internals        .... done
Copying old internal coords+grads       .... done
Making the new internal coordinates     .... (new redundants).... done
Validating the new internal coordinates .... (new redundants).... done
Calculating the B-matrix                .... done
Calculating the G,G- and P matrices     .... done
Transforming gradient to internals      .... done
Projecting the internal gradient        .... done
Number of atoms                         ....   4
Number of internal coordinates          ....   7
Current Energy                          ....  -292.888949849 Eh
Current gradient norm                   ....     0.039583223 Eh/bohr
Maximum allowed component of the step   ....  0.300
Current trust radius                    ....  0.300
Resetting Hessian after 50 BFGS Update Steps....
Build internal Hessian                  .... (Almloef) done
Updating Hessian with the last 5 steps  .... done
Forming the augmented Hessian           .... done
Diagonalizing the augmented Hessian     .... done
Last element of RFO vector              ....  0.899399408
Lowest eigenvalues of augmented Hessian:
 -0.018555567  0.078017883  0.191177656  0.376574271  0.378952752
Length of the computed step             ....  0.486021878
Warning: the length of the step is outside the trust region - taking restricted step instead
The input lambda is                     ....    -0.018556
   iter:   1  x=   -0.042776  g=    6.036821 f(x)=     0.146217
   iter:   2  x=   -0.060559  g=    2.686946 f(x)=     0.047781
   iter:   3  x=   -0.066622  g=    1.662371 f(x)=     0.010078
   iter:   4  x=   -0.067119  g=    1.434321 f(x)=     0.000714
   iter:   5  x=   -0.067122  g=    1.417498 f(x)=     0.000004
   iter:   6  x=   -0.067122  g=    1.417399 f(x)=     0.000000
   iter:   7  x=   -0.067122  g=    1.417399 f(x)=     0.000000
The output lambda is                    ....    -0.067122 (7 iterations)
The final length of the internal step   ....  0.300000000
Converting the step to cartesian space:
 Initial RMS(Int)=    0.1133893419
Transforming coordinates:
 Iter   0:  RMS(Cart)=    0.0642704938 RMS(Int)=    0.0814930362
 Iter   1:  RMS(Cart)=    0.0254430483 RMS(Int)=    0.0324424978
 Iter   2:  RMS(Cart)=    0.0041793359 RMS(Int)=    0.0053929660
 Iter   3:  RMS(Cart)=    0.0002151819 RMS(Int)=    0.0003118834
 Iter   4:  RMS(Cart)=    0.0000460053 RMS(Int)=    0.0000560883
 Iter   5:  RMS(Cart)=    0.0000026385 RMS(Int)=    0.0000041619
 Iter   6:  RMS(Cart)=    0.0000004515 RMS(Int)=    0.0000005222
 Iter   7:  RMS(Cart)=    0.0000000363 RMS(Int)=    0.0000000544
done
Storing new coordinates                 .... done

                                .--------------------.
          ----------------------|Geometry convergence|-------------------------
          Item                value                   Tolerance       Converged
          ---------------------------------------------------------------------
          Energy change      -0.0000039790            0.0000050000      YES
          RMS gradient        0.0145478583            0.0001000000      NO
          MAX gradient        0.0365448378            0.0003000000      NO
          RMS step            0.1133893419            0.0020000000      NO
          MAX step            0.2867343764            0.0040000000      NO
          ........................................................
          Max(Bonds)      0.0068      Max(Angles)    3.97
          Max(Dihed)        0.00      Max(Improp)   16.43
          ---------------------------------------------------------------------

The optimization has not yet converged - more geometry cycles are needed


    ---------------------------------------------------------------------------
                         Redundant Internal Coordinates
                            (Angstroem and degrees)

        Definition                    Value    dE/dq     Step     New-Value
    ----------------------------------------------------------------------------
     1. B(W   3,O   1)                1.7286  0.004416 -0.0068    1.7218   
     2. B(W   3,O   2)                1.7230 -0.000321 -0.0011    1.7219   
     3. B(W   3,O   0)                1.7287  0.003114 -0.0010    1.7277   
     4. A(O   0,W   3,O   2)          118.67  0.005577   -2.15    116.52   
     5. A(O   1,W   3,O   2)          116.80  0.007691   -3.97    112.82   
     6. A(O   0,W   3,O   1)          118.67  0.005137   -2.13    116.54   
     7. I(O   0,O   2,O   1,W   3)     23.71 -0.036545   16.43     40.14   
    ----------------------------------------------------------------------------




    ----------------------------------------------------------------------------
                                  WARNING !!!
       The optimization did not converge but reached the maximum number of
       optimization cycles.
       Please check your results very carefully.
    ----------------------------------------------------------------------------



                            ***************************************
                            *     ORCA property calculations      *
                            ***************************************

                                    ---------------------
                                    Active property flags
                                    ---------------------
   (+) Dipole Moment


------------------------------------------------------------------------------
                       ORCA ELECTRIC PROPERTIES CALCULATION
------------------------------------------------------------------------------

Dipole Moment Calculation                       ... on
Quadrupole Moment Calculation                   ... off
Polarizability Calculation                      ... off
GBWName                                         ... WO3.gbw
Electron density file                           ... WO3.scfp
The origin for moment calculation is the CENTER OF MASS  = ( 0.769886,  1.982946 -0.565443)

-------------
DIPOLE MOMENT
-------------
                                X             Y             Z
Electronic contribution:     -0.60721      -0.20918     -14.79884
Nuclear contribution   :      0.54822       0.15035      12.72992
                        -----------------------------------------
Total Dipole Moment    :     -0.05898      -0.05883      -2.06892
                        -----------------------------------------
Magnitude (a.u.)       :      2.07059
Magnitude (Debye)      :      5.26303



--------------------
Rotational spectrum 
--------------------
 
Rotational constants in cm-1:     0.234846     0.222585     0.125565 
Rotational constants in MHz :  7040.510651  6672.942435  3764.358726 

 Dipole components along the rotational axes: 
x,y,z [a.u.] :    -0.069464    -0.018465    -2.069346 
x,y,z [Debye]:    -0.176562    -0.046934    -5.259860 

 
--------------------------------------------------------------------------
[[7170,1],0]: A high-performance Open MPI point-to-point messaging module
was unable to find any relevant network interfaces:

Module: OpenFabrics (openib)
  Host: compute-1-0

Another transport will be used instead, although this may result in
lower performance.

NOTE: You can disable this warning by setting the MCA parameter
btl_base_warn_component_unused to 0.
--------------------------------------------------------------------------
[compute-1-0.local:65029] 3 more processes have sent help message help-mpi-btl-base.txt / btl:no-nics
[compute-1-0.local:65029] Set MCA parameter "orte_base_help_aggregate" to 0 to see all help / error messages

Timings for individual modules:

Sum of individual times         ...     1780.110 sec (=  29.668 min)
GTO integral calculation        ...       49.992 sec (=   0.833 min)   2.8 %
SCF iterations                  ...     1083.439 sec (=  18.057 min)  60.9 %
SCF Gradient evaluation         ...      644.844 sec (=  10.747 min)  36.2 %
Geometry relaxation             ...        1.836 sec (=   0.031 min)   0.1 %
                             ****ORCA TERMINATED NORMALLY****
TOTAL RUN TIME: 0 days 0 hours 29 minutes 46 seconds 405 msec
