Warning: no access to tty (Bad file descriptor).
Thus no job control in this shell.

                                 *****************
                                 * O   R   C   A *
                                 *****************

           --- An Ab Initio, DFT and Semiempirical electronic structure package ---

                  #######################################################
                  #                        -***-                        #
                  #          Department of theory and spectroscopy      #
                  #               Directorship: Frank Neese             #
                  #        Max Planck Institute fuer Kohlenforschung    #
                  #                Kaiser Wilhelm Platz 1               #
                  #                 D-45470 Muelheim/Ruhr               #
                  #                      Germany                        #
                  #                                                     #
                  #                  All rights reserved                #
                  #                        -***-                        #
                  #######################################################


                         Program Version 4.2.1 -  RELEASE  -


 With contributions from (in alphabetic order):
   Daniel Aravena         : Magnetic Suceptibility
   Michael Atanasov       : Ab Initio Ligand Field Theory (pilot matlab implementation)
   Alexander A. Auer      : GIAO ZORA, VPT2
   Ute Becker             : Parallelization
   Giovanni Bistoni       : ED, misc. LED, open-shell LED, HFLD
   Martin Brehm           : Molecular dynamics
   Dmytro Bykov           : SCF Hessian
   Vijay G. Chilkuri      : MRCI spin determinant printing, contributions to CSF-ICE
   Dipayan Datta          : RHF DLPNO-CCSD density
   Achintya Kumar Dutta   : EOM-CC, STEOM-CC
   Dmitry Ganyushin       : Spin-Orbit,Spin-Spin,Magnetic field MRCI
   Miquel Garcia          : C-PCM Hessian, Gaussian charge scheme
   Yang Guo               : DLPNO-NEVPT2, CIM, IAO-localization
   Andreas Hansen         : Spin unrestricted coupled pair/coupled cluster methods
   Benjamin Helmich-Paris : CASSCF linear response (MC-RPA)
   Lee Huntington         : MR-EOM, pCC
   Robert Izsak           : Overlap fitted RIJCOSX, COSX-SCS-MP3, EOM
   Christian Kollmar      : KDIIS, OOCD, Brueckner-CCSD(T), CCSD density
   Simone Kossmann        : Meta GGA functionals, TD-DFT gradient, OOMP2, MP2 Hessian
   Martin Krupicka        : AUTO-CI
   Lucas Lang             : DCDCAS
   Dagmar Lenk            : GEPOL surface, SMD
   Dimitrios Liakos       : Extrapolation schemes; Compound Job, initial MDCI parallelization
   Dimitrios Manganas     : Further ROCIS development; embedding schemes
   Dimitrios Pantazis     : SARC Basis sets
   Taras Petrenko         : DFT Hessian,TD-DFT gradient, ASA, ECA, R-Raman, ABS, FL, XAS/XES, NRVS
   Peter Pinski           : DLPNO-MP2, DLPNO-MP2 Gradient
   Christoph Reimann      : Effective Core Potentials
   Marius Retegan         : Local ZFS, SOC
   Christoph Riplinger    : Optimizer, TS searches, QM/MM, DLPNO-CCSD(T), (RO)-DLPNO pert. Triples
   Tobias Risthaus        : Range-separated hybrids, TD-DFT gradient, RPA, STAB
   Michael Roemelt        : Original ROCIS implementation
   Masaaki Saitow         : Open-shell DLPNO-CCSD energy and density
   Barbara Sandhoefer     : DKH picture change effects
   Avijit Sen             : IP-ROCIS
   Kantharuban Sivalingam : CASSCF convergence, NEVPT2, FIC-MRCI
   Bernardo de Souza      : ESD, SOC TD-DFT
   Georgi Stoychev        : AutoAux, RI-MP2 NMR
   Willem Van den Heuvel  : Paramagnetic NMR
   Boris Wezisla          : Elementary symmetry handling
   Frank Wennmohs         : Technical directorship


 We gratefully acknowledge several colleagues who have allowed us to
 interface, adapt or use parts of their codes:
   Stefan Grimme, W. Hujo, H. Kruse,             : VdW corrections, initial TS optimization,
                  C. Bannwarth                     DFT functionals, gCP, sTDA/sTD-DF
   Ed Valeev, F. Pavosevic, A. Kumar             : LibInt (2-el integral package), F12 methods
   Garnet Chan, S. Sharma, J. Yang, R. Olivares  : DMRG
   Ulf Ekstrom                                   : XCFun DFT Library
   Mihaly Kallay                                 : mrcc  (arbitrary order and MRCC methods)
   Andreas Klamt, Michael Diedenhofen            : otool_cosmo (COSMO solvation model)
   Jiri Pittner, Ondrej Demel                    : Mk-CCSD
   Frank Weinhold                                : gennbo (NPA and NBO analysis)
   Christopher J. Cramer and Donald G. Truhlar   : smd solvation model
   Lars Goerigk                                  : TD-DFT with DH, B97 family of functionals
   V. Asgeirsson, H. Jonsson                     : NEB implementation
   FAccTs GmbH                                   : IRC, NEB, NEB-TS, Multilevel, MM, QM/MM, CI optimization
   S Lehtola, MJT Oliveira, MAL Marques          : LibXC Library


 Your calculation uses the libint2 library for the computation of 2-el integrals
 For citations please refer to: http://libint.valeyev.net

 Your ORCA version has been built with support for libXC version: 4.2.3
 For citations please refer to: https://tddft.org/programs/libxc/

 This ORCA versions uses:
   CBLAS   interface :  Fast vector & matrix operations
   LAPACKE interface :  Fast linear algebra routines
   SCALAPACK package :  Parallel linear algebra routines


Your calculation utilizes the atom-pairwise dispersion correction
with the zero-damping scheme (D30)
Cite in your paper:
S.Grimme, J.Antony, S.Ehrlich and H.Krieg, J.Chem.Phys., 132, (2010), 154104 
   

XCFun DFT library Copyright 2009-2010 Ulf Ekstrom and contributors.
See http://admol.org/xcfun for more information. This is free soft-
ware; see the source code for copying conditions. There is ABSOLUTELY
NO WARRANTY; not even for MERCHANTABILITY or FITNESS FOR A PARTICULAR
PURPOSE. For details see the documentation. Scientific users of this 
library should cite U. Ekstrom, L. Visscher, R. Bast, A. J. Thorvald-
sen and K. Ruud; J.Chem.Theor.Comp. 2010, DOI: 10.1021/ct100117s
XCFun Version 0.99 
----- Orbital basis set information -----
Your calculation utilizes the basis: def2-TZVP
   F. Weigend and R. Ahlrichs, Phys. Chem. Chem. Phys. 7, 3297 (2005).

----- AuxJ basis set information -----
Your calculation utilizes the auxiliary basis: def2/J
   F. Weigend, Phys. Chem. Chem. Phys. 8, 1057 (2006).

================================================================================
                                        WARNINGS
                       Please study these warnings very carefully!
================================================================================


WARNING: Geometry Optimization
  ===> : Switching off AutoStart
         For restart on a previous wavefunction, please use MOREAD

INFO   : the flag for use of LIBINT has been found!

================================================================================
                                       INPUT FILE
================================================================================
NAME = BCF.inp
|  1> # avogadro generated ORCA input file 
|  2> # Basic Mode
|  3> # 
|  4> ! wB97X-D3 OPT def2-TZVP def2/J CPCM
|  5> %cpcm
|  6>   epsilon 3
|  7> end
|  8> %pal
|  9>  nprocs 4
| 10> end
| 11> 
| 12> * xyz 0 1
| 13>    C       -0.38838        4.42479        0.19957
| 14>    C       -1.11716        3.23911        0.05784
| 15>    C       -0.81317        5.40989        1.09097
| 16>    C       -2.29477        3.02423        0.81172
| 17>    C       -1.97073        5.21518        1.84417
| 18>    C       -2.71079        4.03589        1.70902
| 19>    C       -2.38774        0.28635        0.31734
| 20>    C       -1.07394        0.04319        0.78305
| 21>    C       -0.42591       -1.16103        0.48842
| 22>    C       -3.02249       -0.71732       -0.45195
| 23>    C       -2.36189       -1.91582       -0.74217
| 24>    C       -1.06752       -2.13775       -0.27276
| 25>    F        0.73381        4.62073       -0.53685
| 26>    F       -0.68078        2.32388       -0.84491
| 27>    F       -0.10111        6.55647        1.22522
| 28>    F       -2.37707        6.17214        2.71549
| 29>    F       -3.81295        3.87997        2.48621
| 30>    F       -4.26898       -0.53605       -0.95815
| 31>    F       -2.98023       -2.86509       -1.48827
| 32>    F       -0.43309       -3.30259       -0.55629
| 33>    F        0.83039       -1.38310        0.94935
| 34>    F       -0.41929        0.94891        1.55377
| 35>    B       -3.13912        1.66667        0.65349
| 36>    C       -4.73562        1.69237        0.83209
| 37>    C       -5.48788        2.83183        0.46120
| 38>    C       -6.87785        2.84840        0.61714
| 39>    C       -5.42528        0.57762        1.36420
| 40>    C       -7.54007        1.74034        1.14518
| 41>    C       -6.81536        0.60862        1.51851
| 42>    F       -4.89299        3.92270       -0.08580
| 43>    F       -7.58646        3.94475        0.24840
| 44>    F       -4.76111       -0.53427        1.77105
| 45>    F       -7.46194       -0.46443        2.03867
| 46>    F       -8.88786        1.76346        1.29561
| 47> *
| 48> 
| 49> 
| 50>                          ****END OF INPUT****
================================================================================

                       *****************************
                       * Geometry Optimization Run *
                       *****************************

Geometry optimization settings:
Update method            Update   .... BFGS
Choice of coordinates    CoordSys .... Z-matrix Internals
Initial Hessian          InHess   .... Almoef's Model

Convergence Tolerances:
Energy Change            TolE     ....  5.0000e-06 Eh
Max. Gradient            TolMAXG  ....  3.0000e-04 Eh/bohr
RMS Gradient             TolRMSG  ....  1.0000e-04 Eh/bohr
Max. Displacement        TolMAXD  ....  4.0000e-03 bohr
RMS Displacement         TolRMSD  ....  2.0000e-03 bohr
Strict Convergence                ....  False
------------------------------------------------------------------------------
                        ORCA OPTIMIZATION COORDINATE SETUP
------------------------------------------------------------------------------

The optimization will be done in new redundant internal coordinates
Making redundant internal coordinates   ...  (new redundants) done
Evaluating the initial hessian          ...  (Almloef) done
Evaluating the coordinates              ...  done
Calculating the B-matrix                .... done
Calculating the G-matrix                .... done
Diagonalizing the G-matrix              .... done
Small eigenvalue found = 4.560e-03
Small eigenvalue found = 4.570e-03
Small eigenvalue found = 1.947e-02
Small eigenvalue found = 2.915e-02
Small eigenvalue found = 2.930e-02
The first mode is                       ....   81
The number of degrees of freedom        ....   96

    -----------------------------------------------------------------
                    Redundant Internal Coordinates


    -----------------------------------------------------------------
         Definition                    Initial Value    Approx d2E/dq
    -----------------------------------------------------------------
      1. B(C   1,C   0)                  1.3989         0.604601   
      2. B(C   2,C   0)                  1.3948         0.613879   
      3. B(C   3,C   1)                  1.4147         0.570675   
      4. B(C   4,C   2)                  1.3947         0.614118   
      5. B(C   5,C   4)                  1.3988         0.604891   
      6. B(C   5,C   3)                  1.4148         0.570377   
      7. B(C   7,C   6)                  1.4149         0.570076   
      8. B(C   8,C   7)                  1.3989         0.604719   
      9. B(C   9,C   6)                  1.4149         0.570087   
     10. B(C  10,C   9)                  1.3989         0.604619   
     11. B(C  11,C  10)                  1.3946         0.614260   
     12. B(C  11,C   8)                  1.3946         0.614221   
     13. B(F  12,C   0)                  1.3565         0.588109   
     14. B(F  13,C   1)                  1.3576         0.585715   
     15. B(F  14,C   2)                  1.3564         0.588363   
     16. B(F  15,C   4)                  1.3565         0.588057   
     17. B(F  16,C   5)                  1.3576         0.585667   
     18. B(F  17,C   9)                  1.3575         0.585871   
     19. B(F  18,C  10)                  1.3565         0.588025   
     20. B(F  19,C  11)                  1.3564         0.588328   
     21. B(F  20,C   8)                  1.3565         0.588074   
     22. B(F  21,C   7)                  1.3575         0.585815   
     23. B(B  22,C   6)                  1.6071         0.325946   
     24. B(B  22,C   3)                  1.6065         0.326662   
     25. B(C  23,B  22)                  1.6067         0.326499   
     26. B(C  24,C  23)                  1.4149         0.570268   
     27. B(C  25,C  24)                  1.3988         0.604947   
     28. B(C  26,C  23)                  1.4147         0.570552   
     29. B(C  27,C  25)                  1.3947         0.614125   
     30. B(C  28,C  27)                  1.3948         0.613954   
     31. B(C  28,C  26)                  1.3990         0.604561   
     32. B(F  29,C  24)                  1.3576         0.585660   
     33. B(F  30,C  25)                  1.3565         0.588059   
     34. B(F  31,C  26)                  1.3576         0.585781   
     35. B(F  32,C  28)                  1.3565         0.588068   
     36. B(F  33,C  27)                  1.3564         0.588361   
     37. A(C   1,C   0,C   2)          120.3107         0.431338   
     38. A(C   2,C   0,F  12)          119.7945         0.424518   
     39. A(C   1,C   0,F  12)          119.8942         0.423363   
     40. A(C   3,C   1,F  13)          121.3013         0.418717   
     41. A(C   0,C   1,C   3)          120.5576         0.425729   
     42. A(C   0,C   1,F  13)          118.1190         0.423055   
     43. A(C   0,C   2,C   4)          119.9543         0.432550   
     44. A(C   4,C   2,F  14)          120.0188         0.424580   
     45. A(C   0,C   2,F  14)          120.0269         0.424551   
     46. A(C   5,C   3,B  22)          120.8078         0.385068   
     47. A(C   1,C   3,C   5)          118.3034         0.421318   
     48. A(C   1,C   3,B  22)          120.8888         0.385103   
     49. A(C   2,C   4,F  15)          119.8031         0.424541   
     50. A(C   2,C   4,C   5)          120.3067         0.431405   
     51. A(C   5,C   4,F  15)          119.8897         0.423393   
     52. A(C   3,C   5,C   4)          120.5668         0.425726   
     53. A(C   4,C   5,F  16)          118.1011         0.423085   
     54. A(C   3,C   5,F  16)          121.3101         0.418672   
     55. A(C   9,C   6,B  22)          120.8781         0.384887   
     56. A(C   7,C   6,B  22)          120.8548         0.384886   
     57. A(C   7,C   6,C   9)          118.2671         0.421200   
     58. A(C   6,C   7,C   8)          120.5802         0.425664   
     59. A(C   6,C   7,F  21)          121.3300         0.418651   
     60. A(C   8,C   7,F  21)          118.0678         0.423083   
     61. A(C  11,C   8,F  20)          119.7937         0.424556   
     62. A(C   7,C   8,F  20)          119.8936         0.423374   
     63. A(C   7,C   8,C  11)          120.3121         0.431396   
     64. A(C  10,C   9,F  17)          118.0757         0.423077   
     65. A(C   6,C   9,F  17)          121.3278         0.418660   
     66. A(C   6,C   9,C  10)          120.5745         0.425653   
     67. A(C  11,C  10,F  18)          119.7904         0.424554   
     68. A(C   9,C  10,C  11)          120.3163         0.431388   
     69. A(C   9,C  10,F  18)          119.8927         0.423355   
     70. A(C  10,C  11,F  19)          120.0276         0.424593   
     71. A(C   8,C  11,F  19)          120.0229         0.424588   
     72. A(C   8,C  11,C  10)          119.9495         0.432611   
     73. A(C   6,B  22,C  23)          120.1034         0.352643   
     74. A(C   3,B  22,C  23)          119.8535         0.352774   
     75. A(C   3,B  22,C   6)          120.0431         0.352673   
     76. A(C  24,C  23,C  26)          118.2939         0.421287   
     77. A(B  22,C  23,C  26)          120.9046         0.385055   
     78. A(B  22,C  23,C  24)          120.8014         0.385022   
     79. A(C  25,C  24,F  29)          118.0880         0.423091   
     80. A(C  23,C  24,F  29)          121.3162         0.418657   
     81. A(C  23,C  24,C  25)          120.5740         0.425719   
     82. A(C  27,C  25,F  30)          119.8019         0.424542   
     83. A(C  24,C  25,F  30)          119.8915         0.423400   
     84. A(C  24,C  25,C  27)          120.3060         0.431413   
     85. A(C  28,C  26,F  31)          118.1140         0.423058   
     86. A(C  23,C  26,F  31)          121.3052         0.418709   
     87. A(C  23,C  26,C  28)          120.5586         0.425708   
     88. A(C  28,C  27,F  33)          120.0302         0.424560   
     89. A(C  25,C  27,F  33)          120.0175         0.424581   
     90. A(C  25,C  27,C  28)          119.9523         0.432560   
     91. A(C  27,C  28,F  32)          119.7907         0.424522   
     92. A(C  26,C  28,F  32)          119.8940         0.423353   
     93. A(C  26,C  28,C  27)          120.3147         0.431342   
     94. D(F  13,C   1,C   0,C   2)    178.4991         0.025221   
     95. D(C   3,C   1,C   0,F  12)   -179.5422         0.025221   
     96. D(F  13,C   1,C   0,F  12)     -1.2318         0.025221   
     97. D(C   3,C   1,C   0,C   2)      0.1887         0.025221   
     98. D(C   4,C   2,C   0,C   1)     -0.0989         0.026046   
     99. D(C   4,C   2,C   0,F  12)    179.6322         0.026046   
    100. D(F  14,C   2,C   0,C   1)    179.9050         0.026046   
    101. D(F  14,C   2,C   0,F  12)     -0.3639         0.026046   
    102. D(B  22,C   3,C   1,F  13)      1.6427         0.022342   
    103. D(C   5,C   3,C   1,C   0)     -0.0851         0.022342   
    104. D(C   5,C   3,C   1,F  13)   -178.3410         0.022342   
    105. D(B  22,C   3,C   1,C   0)    179.8986         0.022342   
    106. D(F  15,C   4,C   2,C   0)    179.6429         0.026067   
    107. D(C   5,C   4,C   2,C   0)     -0.0933         0.026067   
    108. D(C   5,C   4,C   2,F  14)    179.9028         0.026067   
    109. D(F  15,C   4,C   2,F  14)     -0.3611         0.026067   
    110. D(F  16,C   5,C   4,F  15)     -1.2208         0.025246   
    111. D(C   3,C   5,C   4,F  15)   -179.5391         0.025246   
    112. D(F  16,C   5,C   3,B  22)      1.6461         0.022318   
    113. D(F  16,C   5,C   3,C   1)   -178.3701         0.022318   
    114. D(C   4,C   5,C   3,B  22)    179.9098         0.022318   
    115. D(F  16,C   5,C   4,C   2)    178.5151         0.025246   
    116. D(C   4,C   5,C   3,C   1)     -0.1065         0.022318   
    117. D(C   3,C   5,C   4,C   2)      0.1969         0.025246   
    118. D(F  21,C   7,C   6,B  22)      1.6603         0.022293   
    119. D(F  21,C   7,C   6,C   9)   -178.3430         0.022293   
    120. D(C   8,C   7,C   6,B  22)    179.9220         0.022293   
    121. D(C   8,C   7,C   6,C   9)     -0.0814         0.022293   
    122. D(F  20,C   8,C   7,C   6)   -179.5703         0.025231   
    123. D(C  11,C   8,C   7,F  21)    178.4761         0.025231   
    124. D(C  11,C   8,C   7,C   6)      0.1589         0.025231   
    125. D(F  20,C   8,C   7,F  21)     -1.2531         0.025231   
    126. D(F  17,C   9,C   6,B  22)      1.6623         0.022294   
    127. D(F  17,C   9,C   6,C   7)   -178.3343         0.022294   
    128. D(C  10,C   9,C   6,B  22)    179.9209         0.022294   
    129. D(C  10,C   9,C   6,C   7)     -0.0757         0.022294   
    130. D(F  18,C  10,C   9,F  17)     -1.2571         0.025222   
    131. D(F  18,C  10,C   9,C   6)   -179.5712         0.025222   
    132. D(C  11,C  10,C   9,F  17)    178.4713         0.025222   
    133. D(C  11,C  10,C   9,C   6)      0.1572         0.025222   
    134. D(F  19,C  11,C  10,F  18)     -0.3503         0.026080   
    135. D(C   8,C  11,C  10,F  18)    179.6487         0.026080   
    136. D(C   8,C  11,C  10,C   9)     -0.0800         0.026080   
    137. D(F  19,C  11,C   8,F  20)     -0.3492         0.026077   
    138. D(F  19,C  11,C   8,C   7)    179.9214         0.026077   
    139. D(F  19,C  11,C  10,C   9)    179.9211         0.026080   
    140. D(C  10,C  11,C   8,F  20)    179.6519         0.026077   
    141. D(C  10,C  11,C   8,C   7)     -0.0776         0.026077   
    142. D(C  23,B  22,C   6,C   9)     31.7494         0.006468   
    143. D(C   3,B  22,C   6,C   9)   -148.2527         0.006468   
    144. D(C   3,B  22,C   6,C   7)     31.7438         0.006468   
    145. D(C  23,B  22,C   3,C   5)     32.3831         0.006492   
    146. D(C  23,B  22,C   3,C   1)   -147.6002         0.006492   
    147. D(C  23,B  22,C   6,C   7)   -148.2540         0.006468   
    148. D(C   6,B  22,C   3,C   5)   -147.6147         0.006492   
    149. D(C   6,B  22,C   3,C   1)     32.4019         0.006492   
    150. D(C  26,C  23,B  22,C   6)     32.2494         0.006486   
    151. D(C  26,C  23,B  22,C   3)   -147.7484         0.006486   
    152. D(C  24,C  23,B  22,C   6)   -147.7731         0.006486   
    153. D(C  24,C  23,B  22,C   3)     32.2291         0.006486   
    154. D(F  29,C  24,C  23,B  22)      1.6516         0.022309   
    155. D(C  25,C  24,C  23,C  26)     -0.1052         0.022309   
    156. D(C  25,C  24,C  23,B  22)    179.9167         0.022309   
    157. D(F  29,C  24,C  23,C  26)   -178.3704         0.022309   
    158. D(F  30,C  25,C  24,F  29)     -1.2259         0.025251   
    159. D(F  30,C  25,C  24,C  23)   -179.5460         0.025251   
    160. D(C  27,C  25,C  24,F  29)    178.5094         0.025251   
    161. D(C  27,C  25,C  24,C  23)      0.1894         0.025251   
    162. D(F  31,C  26,C  23,C  24)   -178.3318         0.022332   
    163. D(F  31,C  26,C  23,B  22)      1.6462         0.022332   
    164. D(C  28,C  26,C  23,C  24)     -0.0783         0.022332   
    165. D(C  28,C  26,C  23,B  22)    179.8998         0.022332   
    166. D(F  33,C  27,C  25,F  30)     -0.3583         0.026068   
    167. D(F  33,C  27,C  25,C  24)    179.9061         0.026068   
    168. D(C  28,C  27,C  25,F  30)    179.6479         0.026068   
    169. D(C  28,C  27,C  25,C  24)     -0.0877         0.026068   
    170. D(F  32,C  28,C  27,F  33)     -0.3604         0.026053   
    171. D(F  32,C  28,C  27,C  25)    179.6334         0.026053   
    172. D(C  26,C  28,C  27,F  33)    179.9098         0.026053   
    173. D(C  26,C  28,C  27,C  25)     -0.0964         0.026053   
    174. D(F  32,C  28,C  26,F  31)     -1.2414         0.025217   
    175. D(F  32,C  28,C  26,C  23)   -179.5496         0.025217   
    176. D(C  27,C  28,C  26,F  31)    178.4881         0.025217   
    177. D(C  27,C  28,C  26,C  23)      0.1799         0.025217   
    -----------------------------------------------------------------

Number of atoms                         .... 34
Number of degrees of freedom            .... 177

         *************************************************************
         *                GEOMETRY OPTIMIZATION CYCLE   1            *
         *************************************************************
---------------------------------
CARTESIAN COORDINATES (ANGSTROEM)
---------------------------------
  C     -0.388380    4.424790    0.199570
  C     -1.117160    3.239110    0.057840
  C     -0.813170    5.409890    1.090970
  C     -2.294770    3.024230    0.811720
  C     -1.970730    5.215180    1.844170
  C     -2.710790    4.035890    1.709020
  C     -2.387740    0.286350    0.317340
  C     -1.073940    0.043190    0.783050
  C     -0.425910   -1.161030    0.488420
  C     -3.022490   -0.717320   -0.451950
  C     -2.361890   -1.915820   -0.742170
  C     -1.067520   -2.137750   -0.272760
  F      0.733810    4.620730   -0.536850
  F     -0.680780    2.323880   -0.844910
  F     -0.101110    6.556470    1.225220
  F     -2.377070    6.172140    2.715490
  F     -3.812950    3.879970    2.486210
  F     -4.268980   -0.536050   -0.958150
  F     -2.980230   -2.865090   -1.488270
  F     -0.433090   -3.302590   -0.556290
  F      0.830390   -1.383100    0.949350
  F     -0.419290    0.948910    1.553770
  B     -3.139120    1.666670    0.653490
  C     -4.735620    1.692370    0.832090
  C     -5.487880    2.831830    0.461200
  C     -6.877850    2.848400    0.617140
  C     -5.425280    0.577620    1.364200
  C     -7.540070    1.740340    1.145180
  C     -6.815360    0.608620    1.518510
  F     -4.892990    3.922700   -0.085800
  F     -7.586460    3.944750    0.248400
  F     -4.761110   -0.534270    1.771050
  F     -7.461940   -0.464430    2.038670
  F     -8.887860    1.763460    1.295610

----------------------------
CARTESIAN COORDINATES (A.U.)
----------------------------
  NO LB      ZA    FRAG     MASS         X           Y           Z
   0 C     6.0000    0    12.011   -0.733932    8.361641    0.377133
   1 C     6.0000    0    12.011   -2.111126    6.121031    0.109302
   2 C     6.0000    0    12.011   -1.536669   10.223211    2.061635
   3 C     6.0000    0    12.011   -4.336487    5.714966    1.533928
   4 C     6.0000    0    12.011   -3.724140    9.855262    3.484976
   5 C     6.0000    0    12.011   -5.122651    7.626727    3.229580
   6 C     6.0000    0    12.011   -4.512175    0.541123    0.599686
   7 C     6.0000    0    12.011   -2.029452    0.081617    1.479750
   8 C     6.0000    0    12.011   -0.804853   -2.194029    0.922980
   9 C     6.0000    0    12.011   -5.711678   -1.355538   -0.854062
  10 C     6.0000    0    12.011   -4.463325   -3.620375   -1.402498
  11 C     6.0000    0    12.011   -2.017320   -4.039762   -0.515442
  12 F     9.0000    0    18.998    1.386700    8.731914   -1.014499
  13 F     9.0000    0    18.998   -1.286488    4.391497   -1.596649
  14 F     9.0000    0    18.998   -0.191070   12.389933    2.315330
  15 F     9.0000    0    18.998   -4.492011   11.663654    5.131532
  16 F     9.0000    0    18.998   -7.205431    7.332081    4.698256
  17 F     9.0000    0    18.998   -8.067203   -1.012988   -1.810641
  18 F     9.0000    0    18.998   -5.631819   -5.414235   -2.812423
  19 F     9.0000    0    18.998   -0.818421   -6.240991   -1.051236
  20 F     9.0000    0    18.998    1.569210   -2.613680    1.794012
  21 F     9.0000    0    18.998   -0.792343    1.793180    2.936200
  22 B     5.0000    0    10.810   -5.932077    3.149550    1.234917
  23 C     6.0000    0    12.011   -8.949025    3.198116    1.572422
  24 C     6.0000    0    12.011  -10.370590    5.351383    0.871542
  25 C     6.0000    0    12.011  -12.997253    5.382696    1.166226
  26 C     6.0000    0    12.011  -10.252293    1.091544    2.577964
  27 C     6.0000    0    12.011  -14.248667    3.288766    2.164077
  28 C     6.0000    0    12.011  -12.879164    1.150125    2.869568
  29 F     9.0000    0    18.998   -9.246411    7.412829   -0.162139
  30 F     9.0000    0    18.998  -14.336332    7.454497    0.469408
  31 F     9.0000    0    18.998   -8.997194   -1.009624    3.346799
  32 F     9.0000    0    18.998  -14.101023   -0.877646    3.852528
  33 F     9.0000    0    18.998  -16.795621    3.332456    2.448348

--------------------------------
INTERNAL COORDINATES (ANGSTROEM)
--------------------------------
 C      0   0   0     0.000000000000     0.00000000     0.00000000
 C      1   0   0     1.398944153174     0.00000000     0.00000000
 C      1   2   0     1.394798377580   120.31074804     0.00000000
 C      2   1   3     1.414663840246   120.55759453     0.18869748
 C      3   1   2     1.394692574620   119.95430500   359.90107344
 C      5   3   1     1.398813508013   120.30673576   359.90670680
 C      4   2   1     2.783710096203    94.73532731   195.48673225
 C      7   4   2     1.414949832927    94.56312133    54.42175861
 C      8   7   4     1.398890819971   120.58020838   195.21033870
 C      7   4   2     1.414944569762   144.01757067   257.70956728
 C     10   7   4     1.398936116626   120.57446981   153.34369687
 C     11  10   7     1.394629832572   120.31630592     0.15718655
 F      1   2   3     1.356472372037   119.89422280   180.26913360
 F      2   1   3     1.357582785616   118.11895270   178.49907600
 F      3   1   2     1.356354748029   120.02692217   179.90499501
 F      5   3   1     1.356496656686   119.80308924   179.64286319
 F      6   5   3     1.357605247522   118.10114291   178.51513619
 F     10   7   4     1.357510432004   121.32777522   335.08511341
 F     11  10   7     1.356511370575   119.89272926   180.42880906
 F     12  11  10     1.356371229199   120.02764764   179.92109430
 F      9   8   7     1.356488569727   119.89363843   180.42968559
 F      8   7   4     1.357536246035   121.33003578    16.94866285
 B      4   2   1     1.606528184938   120.88875466   179.89861674
 C     23   4   2     1.606664464037   119.85348745   212.39975169
 C     24  23   4     1.414858152360   120.80144465    32.22906120
 C     25  24  23     1.398788207485   120.57396708   179.91672995
 C     24  23   4     1.414722421608   120.90460605   212.25158260
 C     26  25  24     1.394689403989   120.30604016     0.18935223
 C     28  26  25     1.394765224473   119.95230286   359.91229779
 F     25  24  23     1.357608363631   121.31617198     1.65155834
 F     26  25  24     1.356495721409   119.89150732   180.45401028
 F     27  24  23     1.357552239695   121.30521758     1.64620133
 F     29  28  26     1.356491217996   119.79065903   179.63338244
 F     28  26  25     1.356356001719   120.01750697   179.90610452

---------------------------
INTERNAL COORDINATES (A.U.)
---------------------------
 C      0   0   0     0.000000000000     0.00000000     0.00000000
 C      1   0   0     2.643621326149     0.00000000     0.00000000
 C      1   2   0     2.635786945664   120.31074804     0.00000000
 C      2   1   3     2.673327229627   120.55759453     0.18869748
 C      3   1   2     2.635587007045   119.95430500   359.90107344
 C      5   3   1     2.643374442574   120.30673576   359.90670680
 C      4   2   1     5.260449718054    94.73532731   195.48673225
 C      7   4   2     2.673867677470    94.56312133    54.42175861
 C      8   7   4     2.643520541002   120.58020838   195.21033870
 C      7   4   2     2.673857731530   144.01757067   257.70956728
 C     10   7   4     2.643606139274   120.57446981   153.34369687
 C     11  10   7     2.635468441758   120.31630592     0.15718655
 F      1   2   3     2.563361291381   119.89422280   180.26913360
 F      2   1   3     2.565459668940   118.11895270   178.49907600
 F      3   1   2     2.563139014218   120.02692217   179.90499501
 F      5   3   1     2.563407182716   119.80308924   179.64286319
 F      6   5   3     2.565502115791   118.10114291   178.51513619
 F     10   7   4     2.565322940429   121.32777522   335.08511341
 F     11  10   7     2.563434987937   119.89272926   180.42880906
 F     12  11  10     2.563170159117   120.02764764   179.92109430
 F      9   8   7     2.563391900579   119.89363843   180.42968559
 F      8   7   4     2.565371721879   121.33003578    16.94866285
 B      4   2   1     3.035898295958   120.88875466   179.89861674
 C     23   4   2     3.036155826134   119.85348745   212.39975169
 C     24  23   4     2.673694426307   120.80144465    32.22906120
 C     25  24  23     2.643326631506   120.57396708   179.91672995
 C     24  23   4     2.673437932357   120.90460605   212.25158260
 C     26  25  24     2.635581015422   120.30604016     0.18935223
 C     28  26  25     2.635724295372   119.95230286   359.91229779
 F     25  24  23     2.565508004383   121.31617198     1.65155834
 F     26  25  24     2.563405415298   119.89150732   180.45401028
 F     27  24  23     2.565401945514   121.30521758     1.64620133
 F     29  28  26     2.563396905082   119.79065903   179.63338244
 F     28  26  25     2.563141383350   120.01750697   179.90610452

---------------------
BASIS SET INFORMATION
---------------------
There are 3 groups of distinct atoms

 Group   1 Type C   : 11s6p2d1f contracted to 5s3p2d1f pattern {62111/411/11/1}
 Group   2 Type F   : 11s6p2d1f contracted to 5s3p2d1f pattern {62111/411/11/1}
 Group   3 Type B   : 11s6p2d1f contracted to 5s3p2d1f pattern {62111/411/11/1}

Atom   0C    basis set group =>   1
Atom   1C    basis set group =>   1
Atom   2C    basis set group =>   1
Atom   3C    basis set group =>   1
Atom   4C    basis set group =>   1
Atom   5C    basis set group =>   1
Atom   6C    basis set group =>   1
Atom   7C    basis set group =>   1
Atom   8C    basis set group =>   1
Atom   9C    basis set group =>   1
Atom  10C    basis set group =>   1
Atom  11C    basis set group =>   1
Atom  12F    basis set group =>   2
Atom  13F    basis set group =>   2
Atom  14F    basis set group =>   2
Atom  15F    basis set group =>   2
Atom  16F    basis set group =>   2
Atom  17F    basis set group =>   2
Atom  18F    basis set group =>   2
Atom  19F    basis set group =>   2
Atom  20F    basis set group =>   2
Atom  21F    basis set group =>   2
Atom  22B    basis set group =>   3
Atom  23C    basis set group =>   1
Atom  24C    basis set group =>   1
Atom  25C    basis set group =>   1
Atom  26C    basis set group =>   1
Atom  27C    basis set group =>   1
Atom  28C    basis set group =>   1
Atom  29F    basis set group =>   2
Atom  30F    basis set group =>   2
Atom  31F    basis set group =>   2
Atom  32F    basis set group =>   2
Atom  33F    basis set group =>   2
---------------------------------
AUXILIARY/J BASIS SET INFORMATION
---------------------------------
There are 3 groups of distinct atoms

 Group   1 Type C   : 12s5p4d2f1g contracted to 6s4p3d1f1g pattern {711111/2111/211/2/1}
 Group   2 Type F   : 12s5p4d2f1g contracted to 6s4p3d1f1g pattern {711111/2111/211/2/1}
 Group   3 Type B   : 12s5p4d2f1g contracted to 6s4p3d1f1g pattern {711111/2111/211/2/1}

Atom   0C    basis set group =>   1
Atom   1C    basis set group =>   1
Atom   2C    basis set group =>   1
Atom   3C    basis set group =>   1
Atom   4C    basis set group =>   1
Atom   5C    basis set group =>   1
Atom   6C    basis set group =>   1
Atom   7C    basis set group =>   1
Atom   8C    basis set group =>   1
Atom   9C    basis set group =>   1
Atom  10C    basis set group =>   1
Atom  11C    basis set group =>   1
Atom  12F    basis set group =>   2
Atom  13F    basis set group =>   2
Atom  14F    basis set group =>   2
Atom  15F    basis set group =>   2
Atom  16F    basis set group =>   2
Atom  17F    basis set group =>   2
Atom  18F    basis set group =>   2
Atom  19F    basis set group =>   2
Atom  20F    basis set group =>   2
Atom  21F    basis set group =>   2
Atom  22B    basis set group =>   3
Atom  23C    basis set group =>   1
Atom  24C    basis set group =>   1
Atom  25C    basis set group =>   1
Atom  26C    basis set group =>   1
Atom  27C    basis set group =>   1
Atom  28C    basis set group =>   1
Atom  29F    basis set group =>   2
Atom  30F    basis set group =>   2
Atom  31F    basis set group =>   2
Atom  32F    basis set group =>   2
Atom  33F    basis set group =>   2
--------------------------------------------------------------------------
[[22624,1],2]: A high-performance Open MPI point-to-point messaging module
was unable to find any relevant network interfaces:

Module: OpenFabrics (openib)
  Host: compute-1-12

Another transport will be used instead, although this may result in
lower performance.

NOTE: You can disable this warning by setting the MCA parameter
btl_base_warn_component_unused to 0.
--------------------------------------------------------------------------


           ************************************************************
           *        Program running with 4 parallel MPI-processes     *
           *              working on a common directory               *
           ************************************************************
------------------------------------------------------------------------------
                           ORCA GTO INTEGRAL CALCULATION
------------------------------------------------------------------------------

                         BASIS SET STATISTICS AND STARTUP INFO

 # of primitive gaussian shells          ...  680
 # of primitive gaussian functions       ... 1564
 # of contracted shells                  ...  374
 # of contracted basis functions         ... 1054
 Highest angular momentum                ...    3
 Maximum contraction depth               ...    6
 Integral package used                   ... LIBINT
 Integral threshhold            Thresh   ...  2.500e-11
 Primitive cut-off              TCut     ...  2.500e-12


------------------------------ INTEGRAL EVALUATION ----------------------------


 * One electron integrals 
 Pre-screening matrix                    ... done
 Shell pair data                         ... done (   0.025 sec)

[compute-1-12.local:62299] 3 more processes have sent help message help-mpi-btl-base.txt / btl:no-nics
[compute-1-12.local:62299] Set MCA parameter "orte_base_help_aggregate" to 0 to see all help / error messages
--------------------------------------------------------------------------
[[22612,1],3]: A high-performance Open MPI point-to-point messaging module
was unable to find any relevant network interfaces:

Module: OpenFabrics (openib)
  Host: compute-1-12

Another transport will be used instead, although this may result in
lower performance.

NOTE: You can disable this warning by setting the MCA parameter
btl_base_warn_component_unused to 0.
--------------------------------------------------------------------------


           ************************************************************
           *        Program running with 4 parallel MPI-processes     *
           *              working on a common directory               *
           ************************************************************
-------------------------------------------------------------------------------
                                 ORCA SCF
-------------------------------------------------------------------------------

------------
SCF SETTINGS
------------
Hamiltonian:
 Density Functional     Method          .... DFT(GTOs)
 Exchange Functional    Exchange        .... WB97X-D3
 Correlation Functional Correlation     .... WB97X-D3
 Gradients option       PostSCFGGA      .... off
 Hybrid DFT is turned on
   Fraction HF Exchange ScalHFX         ....  0.195728
   Scaling of DF-GGA-X  ScalDFX         ....  0.000000
   Scaling of DF-GGA-C  ScalDFC         ....  1.000000
   Scaling of DF-LDA-C  ScalLDAC        ....  1.000000
   Perturbative correction              ....  0.000000
   Density functional embedding theory  .... OFF
 Long-range corrected/Screened/Range-Separated Hybrid DFT is turned on
   Amount of maximum screened exact exchange              ....  0.804272
   Range separation parameter mu (erf(mu*r12)/r12)        ....  0.250000


General Settings:
 Integral files         IntName         .... BCF
 Hartree-Fock type      HFTyp           .... RHF
 Total Charge           Charge          ....    0
 Multiplicity           Mult            ....    1
 Number of Electrons    NEL             ....  248
 Basis Dimension        Dim             .... 1054
 Nuclear Repulsion      ENuc            ....   3807.3832895272 Eh

Convergence Acceleration:
 DIIS                   CNVDIIS         .... on
   Start iteration      DIISMaxIt       ....    12
   Startup error        DIISStart       ....  0.200000
   # of expansion vecs  DIISMaxEq       ....     5
   Bias factor          DIISBfac        ....   1.050
   Max. coefficient     DIISMaxC        ....  10.000
 Newton-Raphson         CNVNR           .... off
 SOSCF                  CNVSOSCF        .... on
   Start iteration      SOSCFMaxIt      ....   150
   Startup grad/error   SOSCFStart      ....  0.003300
 Level Shifting         CNVShift        .... on
   Level shift para.    LevelShift      ....    0.2500
   Turn off err/grad.   ShiftErr        ....    0.0010
 Zerner damping         CNVZerner       .... off
 Static damping         CNVDamp         .... on
   Fraction old density DampFac         ....    0.7000
   Max. Damping (<1)    DampMax         ....    0.9800
   Min. Damping (>=0)   DampMin         ....    0.0000
   Turn off err/grad.   DampErr         ....    0.1000
 Fernandez-Rico         CNVRico         .... off

SCF Procedure:
 Maximum # iterations   MaxIter         ....   125
 SCF integral mode      SCFMode         .... Direct
   Integral package                     .... LIBINT
 Reset frequency        DirectResetFreq ....    20
 Integral Threshold     Thresh          ....  2.500e-11 Eh
 Primitive CutOff       TCut            ....  2.500e-12 Eh

Convergence Tolerance:
 Convergence Check Mode ConvCheckMode   .... Total+1el-Energy
 Convergence forced     ConvForced      .... 0
 Energy Change          TolE            ....  1.000e-08 Eh
 1-El. energy change                    ....  1.000e-05 Eh
 Orbital Gradient       TolG            ....  1.000e-05
 Orbital Rotation angle TolX            ....  1.000e-05
 DIIS Error             TolErr          ....  5.000e-07


Diagonalization of the overlap matrix:
Smallest eigenvalue                        ... 1.407e-05
Time for diagonalization                   ...    0.381 sec
Threshold for overlap eigenvalues          ... 1.000e-08
Number of eigenvalues below threshold      ... 0
Time for construction of square roots      ...    0.272 sec
Total time needed                          ...    0.657 sec

-------------------
DFT GRID GENERATION
-------------------

General Integration Accuracy     IntAcc      ...  4.340
Radial Grid Type                 RadialGrid  ... Gauss-Chebyshev
Angular Grid (max. acc.)         AngularGrid ... Lebedev-110
Angular grid pruning method      GridPruning ... 3 (G Style)
Weight generation scheme         WeightScheme... Becke
Basis function cutoff            BFCut       ...    1.0000e-11
Integration weight cutoff        WCut        ...    1.0000e-14
Grids for H and He will be reduced by one unit

# of grid points (after initial pruning)     ...  57586 (   0.0 sec)
# of grid points (after weights+screening)   ...  51977 (   0.2 sec)
nearest neighbour list constructed           ...    0.0 sec
Grid point re-assignment to atoms done       ...    0.0 sec
Grid point division into batches done        ...    0.1 sec
Reduced shell lists constructed in    0.6 sec

Total number of grid points                  ...    51977
Total number of batches                      ...      830
Average number of points per batch           ...       62
Average number of grid points per atom       ...     1529
Average number of shells per batch           ...   162.97 (43.57%)
Average number of basis functions per batch  ...   456.37 (43.30%)
Average number of large shells per batch     ...   111.50 (68.42%)
Average number of large basis fcns per batch ...   311.22 (68.19%)
Maximum spatial batch extension              ...  10.85, 14.11, 14.40 au
Average spatial batch extension              ...   0.52,  0.52,  0.56 au

Time for grid setup =    0.825 sec

------------------------------
INITIAL GUESS: MODEL POTENTIAL
------------------------------
Loading Hartree-Fock densities                     ... done
Calculating cut-offs                               ... done
Setting up the integral package                    ... done
Initializing the effective Hamiltonian             ... done
Starting the Coulomb interaction                   ... done (   1.6 sec)
Reading the grid                                   ... done
Mapping shells                                     ... done
Starting the XC term evaluation                    ... done (   1.4 sec)
  promolecular density results
     # of electrons  =    247.997876615
     EX              =   -245.799561126
     EC              =     -8.614124409
     EX+EC           =   -254.413685536
Transforming the Hamiltonian                       ... done (   0.2 sec)
Diagonalizing the Hamiltonian                      ... [compute-1-12.local:62319] 3 more processes have sent help message help-mpi-btl-base.txt / btl:no-nics
[compute-1-12.local:62319] Set MCA parameter "orte_base_help_aggregate" to 0 to see all help / error messages
done (   0.4 sec)
Back transforming the eigenvectors                 ... done (   0.1 sec)
Now organizing SCF variables                       ... done
                      ------------------
                      INITIAL GUESS DONE (   4.7 sec)
                      ------------------

--------------------
CPCM SOLVATION MODEL
--------------------
CPCM parameters:
  Epsilon                                         ...       3.0000
  Refrac                                          ...       1.3300
  Rsolv                                           ...       1.3000
  Surface type                                    ...    GEPOL SES
  Epsilon function type                           ...         CPCM
Radii:
 Radius for C  used is    3.7795 Bohr (=   2.0000 Ang.)
 Radius for F  used is    3.2503 Bohr (=   1.7200 Ang.)
 Radius for B  used is    3.8692 Bohr (=   2.0475 Ang.)
Calculating surface                               ...        done! (  0.2s)
GEPOL surface points                              ...         1271
GEPOL Volume                                      ...    2893.2222
GEPOL Surface-area                                ...    1368.8219
Calculating surface distance matrix               ...        done! (  0.0s)
Performing Cholesky decomposition & store         ...        done! (  0.1s)
Overall time for CPCM initialization              ...                 0.3s
--------------
SCF ITERATIONS
--------------
ITER       Energy         Delta-E        Max-DP      RMS-DP      [F,P]     Damp
               ***  Starting incremental Fock matrix formation  ***
  0  -2208.3345768521   0.000000000000 0.03210540  0.00033851  0.1330766 0.7000
  1  -2208.4424684233  -0.107891571223 0.02505718  0.00025184  0.0762295 0.7000
                               ***Turning on DIIS***
  2  -2208.4980694884  -0.055601065062 0.04515702  0.00052762  0.0365408 0.0000
  3  -2208.5948363127  -0.096766824312 0.03123275  0.00025491  0.0306724 0.0000
  4  -2208.6076052589  -0.012768946179 0.00711464  0.00006693  0.0050101 0.0000
  5  -2208.6082284783  -0.000623219471 0.00466628  0.00003323  0.0021951 0.0000
                      *** Initiating the SOSCF procedure ***
                           *** Shutting down DIIS ***
                      *** Re-Reading the Fockian *** 
                      *** Removing any level shift *** 
ITER      Energy       Delta-E        Grad      Rot      Max-DP    RMS-DP
  6  -2208.60843031  -0.0002018276  0.002850  0.002850  0.003732  0.000017
               *** Restarting incremental Fock matrix formation ***
  7  -2208.60851090  -0.0000805962  0.001736  0.005186  0.001788  0.000010
  8  -2208.60854474  -0.0000338425  0.000623  0.005299  0.003332  0.000014
  9  -2208.60855360  -0.0000088512  0.000205  0.001225  0.000215  0.000003
 10  -2208.60855674  -0.0000031458  0.000035  0.000115  0.000103  0.000001
 11  -2208.60855681  -0.0000000663  0.000018  0.000037  0.000039  0.000000
 12  -2208.60855687  -0.0000000592  0.000007  0.000018  0.000020  0.000000
 13  -2208.60855687  -0.0000000025  0.000004  0.000009  0.000007  0.000000
                  ***Gradient check signals convergence***
              ***Rediagonalizing the Fockian in SOSCF/NRSCF***

               *****************************************************
               *                     SUCCESS                       *
               *           SCF CONVERGED AFTER  14 CYCLES          *
               *****************************************************

Setting up the final grid:

General Integration Accuracy     IntAcc      ...  4.670
Radial Grid Type                 RadialGrid  ... Gauss-Chebyshev
Angular Grid (max. acc.)         AngularGrid ... Lebedev-302
Angular grid pruning method      GridPruning ... 3 (G Style)
Weight generation scheme         WeightScheme... Becke
Basis function cutoff            BFCut       ...    1.0000e-11
Integration weight cutoff        WCut        ...    1.0000e-14
Grids for H and He will be reduced by one unit

# of grid points (after initial pruning)     ... 212024 (   0.0 sec)
# of grid points (after weights+screening)   ... 186645 (   0.8 sec)
nearest neighbour list constructed           ...    0.0 sec
Grid point re-assignment to atoms done       ...    0.1 sec
Grid point division into batches done        ...    1.2 sec
Reduced shell lists constructed in    2.7 sec

Total number of grid points                  ...   186645
Total number of batches                      ...     2935
Average number of points per batch           ...       63
Average number of grid points per atom       ...     5490
Average number of shells per batch           ...   152.09 (40.67%)
Average number of basis functions per batch  ...   422.57 (40.09%)
Average number of large shells per batch     ...   103.96 (68.35%)
Average number of large basis fcns per batch ...   288.52 (68.28%)
Maximum spatial batch extension              ...   9.84, 13.98, 18.63 au
Average spatial batch extension              ...   0.34,  0.34,  0.37 au

Final grid set up in    3.6 sec
Final integration                            ... done (   5.3 sec)
Change in XC energy                          ...     0.005322101
Integrated number of electrons               ...   247.999805389
Previous integrated no of electrons          ...   247.998628820

----------------
TOTAL SCF ENERGY
----------------

Total Energy       :        -2208.60323476 Eh          -60099.14940 eV

Components:
Nuclear Repulsion  :         3807.38328953 Eh          103604.16644 eV
Electronic Energy  :        -6015.98652428 Eh         -163703.31584 eV
One Electron Energy:       -10635.29458871 Eh         -289401.07863 eV
Two Electron Energy:         4619.30806443 Eh          125697.76278 eV
CPCM Dielectric    :           -0.00716230 Eh              -0.19490 eV

Virial components:
Potential Energy   :        -4408.02734034 Eh         -119948.52200 eV
Kinetic Energy     :         2199.42410558 Eh           59849.37260 eV
Virial Ratio       :            2.00417342


DFT components:
N(Alpha)           :      123.999902694311 electrons
N(Beta)            :      123.999902694311 electrons
N(Total)           :      247.999805388622 electrons
E(XC)              :     -182.654704818737 Eh       
DFET-embed. en.    :        0.000000000000 Eh       
CPCM Solvation Model Properties:
Surface-charge          :           -0.01453549
Charge-correction       :            0.00011893 Eh               0.00324 eV
Free-energy (cav+disp)  :            0.00623684 Eh               0.16971 eV
Corrected G(solv)       :        -2208.59687899 Eh          -60098.97645 eV

---------------
SCF CONVERGENCE
---------------

  Last Energy change         ...    1.1613e-08  Tolerance :   1.0000e-08
  Last MAX-Density change    ...    1.6487e-05  Tolerance :   1.0000e-07
  Last RMS-Density change    ...    1.6894e-07  Tolerance :   5.0000e-09
  Last Orbital Gradient      ...    6.1798e-07  Tolerance :   1.0000e-05
  Last Orbital Rotation      ...    1.9650e-06  Tolerance :   1.0000e-05

             **** THE GBW FILE WAS UPDATED (BCF.gbw) ****
             **** DENSITY FILE WAS UPDATED (BCF.scfp) ****
             **** ENERGY FILE WAS UPDATED (BCF.en.tmp) ****
             **** THE GBW FILE WAS UPDATED (BCF.gbw) ****
             **** DENSITY FILE WAS UPDATED (BCF.scfp) ****
----------------
ORBITAL ENERGIES
----------------

  NO   OCC          E(Eh)            E(eV) 
   0   2.0000     -24.840736      -675.9508 
   1   2.0000     -24.840631      -675.9479 
   2   2.0000     -24.840480      -675.9438 
   3   2.0000     -24.837271      -675.8565 
   4   2.0000     -24.837215      -675.8550 
   5   2.0000     -24.837173      -675.8538 
   6   2.0000     -24.837165      -675.8536 
   7   2.0000     -24.837135      -675.8528 
   8   2.0000     -24.837074      -675.8511 
   9   2.0000     -24.833018      -675.7408 
  10   2.0000     -24.832995      -675.7401 
  11   2.0000     -24.832903      -675.7377 
  12   2.0000     -24.832898      -675.7375 
  13   2.0000     -24.832849      -675.7362 
  14   2.0000     -24.832843      -675.7360 
  15   2.0000     -10.424815      -283.6736 
  16   2.0000     -10.424655      -283.6693 
  17   2.0000     -10.424604      -283.6679 
  18   2.0000     -10.421340      -283.5791 
  19   2.0000     -10.421253      -283.5767 
  20   2.0000     -10.421246      -283.5765 
  21   2.0000     -10.421142      -283.5737 
  22   2.0000     -10.421080      -283.5720 
  23   2.0000     -10.421066      -283.5716 
  24   2.0000     -10.413711      -283.3715 
  25   2.0000     -10.413689      -283.3709 
  26   2.0000     -10.413658      -283.3700 
  27   2.0000     -10.413623      -283.3691 
  28   2.0000     -10.413603      -283.3685 
  29   2.0000     -10.413523      -283.3664 
  30   2.0000     -10.330125      -281.0970 
  31   2.0000     -10.330015      -281.0940 
  32   2.0000     -10.329785      -281.0877 
  33   2.0000      -6.927232      -188.4996 
  34   2.0000      -1.390164       -37.8283 
  35   2.0000      -1.389446       -37.8087 
  36   2.0000      -1.389375       -37.8068 
  37   2.0000      -1.385204       -37.6933 
  38   2.0000      -1.385121       -37.6911 
  39   2.0000      -1.382322       -37.6149 
  40   2.0000      -1.381855       -37.6022 
  41   2.0000      -1.378818       -37.5196 
  42   2.0000      -1.378781       -37.5185 
  43   2.0000      -1.370106       -37.2825 
  44   2.0000      -1.370058       -37.2812 
  45   2.0000      -1.368776       -37.2463 
  46   2.0000      -1.366180       -37.1756 
  47   2.0000      -1.365506       -37.1573 
  48   2.0000      -1.365467       -37.1563 
  49   2.0000      -1.034309       -28.1450 
  50   2.0000      -1.032794       -28.1038 
  51   2.0000      -1.032761       -28.1029 
  52   2.0000      -0.928673       -25.2705 
  53   2.0000      -0.913267       -24.8513 
  54   2.0000      -0.913072       -24.8460 
  55   2.0000      -0.912984       -24.8436 
  56   2.0000      -0.911628       -24.8067 
  57   2.0000      -0.911505       -24.8033 
  58   2.0000      -0.811304       -22.0767 
  59   2.0000      -0.794470       -21.6186 
  60   2.0000      -0.794400       -21.6167 
  61   2.0000      -0.788209       -21.4483 
  62   2.0000      -0.785906       -21.3856 
  63   2.0000      -0.785897       -21.3853 
  64   2.0000      -0.721414       -19.6307 
  65   2.0000      -0.718029       -19.5386 
  66   2.0000      -0.718002       -19.5378 
  67   2.0000      -0.712302       -19.3827 
  68   2.0000      -0.712225       -19.3806 
  69   2.0000      -0.705104       -19.1868 
  70   2.0000      -0.703295       -19.1376 
  71   2.0000      -0.691863       -18.8266 
  72   2.0000      -0.691814       -18.8252 
  73   2.0000      -0.662258       -18.0209 
  74   2.0000      -0.662186       -18.0190 
  75   2.0000      -0.661653       -18.0045 
  76   2.0000      -0.661615       -18.0035 
  77   2.0000      -0.656973       -17.8772 
  78   2.0000      -0.656849       -17.8738 
  79   2.0000      -0.648859       -17.6563 
  80   2.0000      -0.648794       -17.6546 
  81   2.0000      -0.643322       -17.5057 
  82   2.0000      -0.635952       -17.3051 
  83   2.0000      -0.635875       -17.3030 
  84   2.0000      -0.629584       -17.1318 
  85   2.0000      -0.629284       -17.1237 
  86   2.0000      -0.623138       -16.9564 
  87   2.0000      -0.616496       -16.7757 
  88   2.0000      -0.616432       -16.7740 
  89   2.0000      -0.605610       -16.4795 
  90   2.0000      -0.605587       -16.4789 
  91   2.0000      -0.595512       -16.2047 
  92   2.0000      -0.590874       -16.0785 
  93   2.0000      -0.583463       -15.8768 
  94   2.0000      -0.583426       -15.8758 
  95   2.0000      -0.578994       -15.7552 
  96   2.0000      -0.578945       -15.7539 
  97   2.0000      -0.577651       -15.7187 
  98   2.0000      -0.563050       -15.3214 
  99   2.0000      -0.562905       -15.3174 
 100   2.0000      -0.562791       -15.3143 
 101   2.0000      -0.559592       -15.2273 
 102   2.0000      -0.559567       -15.2266 
 103   2.0000      -0.556733       -15.1495 
 104   2.0000      -0.555374       -15.1125 
 105   2.0000      -0.555354       -15.1119 
 106   2.0000      -0.537005       -14.6126 
 107   2.0000      -0.534258       -14.5379 
 108   2.0000      -0.534194       -14.5361 
 109   2.0000      -0.522527       -14.2187 
 110   2.0000      -0.506236       -13.7754 
 111   2.0000      -0.505726       -13.7615 
 112   2.0000      -0.505620       -13.7586 
 113   2.0000      -0.486616       -13.2415 
 114   2.0000      -0.486553       -13.2398 
 115   2.0000      -0.483315       -13.1517 
 116   2.0000      -0.465350       -12.6628 
 117   2.0000      -0.465283       -12.6610 
 118   2.0000      -0.389966       -10.6115 
 119   2.0000      -0.367364        -9.9965 
 120   2.0000      -0.367299        -9.9947 
 121   2.0000      -0.363632        -9.8949 
 122   2.0000      -0.363529        -9.8921 
 123   2.0000      -0.358081        -9.7439 
 124   0.0000      -0.055067        -1.4984 
 125   0.0000       0.024329         0.6620 
 126   0.0000       0.024400         0.6640 
 127   0.0000       0.037753         1.0273 
 128   0.0000       0.038478         1.0470 
 129   0.0000       0.038615         1.0508 
 130   0.0000       0.048332         1.3152 
 131   0.0000       0.062187         1.6922 
 132   0.0000       0.062205         1.6927 
 133   0.0000       0.103295         2.8108 
 134   0.0000       0.129552         3.5253 
 135   0.0000       0.129744         3.5305 
 136   0.0000       0.129846         3.5333 
 137   0.0000       0.149767         4.0754 
 138   0.0000       0.176736         4.8092 
 139   0.0000       0.176762         4.8099 
 140   0.0000       0.177540         4.8311 
 141   0.0000       0.186911         5.0861 
 142   0.0000       0.187106         5.0914 
 143   0.0000       0.187379         5.0988 
 144   0.0000       0.213865         5.8196 
 145   0.0000       0.213951         5.8219 
 146   0.0000       0.224939         6.1209 
 147   0.0000       0.245479         6.6798 
 148   0.0000       0.245579         6.6825 
 149   0.0000       0.246536         6.7086 
 150   0.0000       0.247874         6.7450 
 151   0.0000       0.255333         6.9480 
 152   0.0000       0.255412         6.9501 
 153   0.0000       0.258021         7.0211 
 154   0.0000       0.258963         7.0467 
 155   0.0000       0.259040         7.0488 
 156   0.0000       0.266370         7.2483 
 157   0.0000       0.266418         7.2496 
 158   0.0000       0.277607         7.5541 
 159   0.0000       0.277701         7.5566 
 160   0.0000       0.289003         7.8642 
 161   0.0000       0.302764         8.2386 
 162   0.0000       0.303575         8.2607 
 163   0.0000       0.303927         8.2703 
 164   0.0000       0.319438         8.6923 
 165   0.0000       0.319656         8.6983 
 166   0.0000       0.320265         8.7149 
 167   0.0000       0.338012         9.1978 
 168   0.0000       0.339070         9.2266 
 169   0.0000       0.339143         9.2285 
 170   0.0000       0.344220         9.3667 
 171   0.0000       0.348892         9.4938 
 172   0.0000       0.350100         9.5267 
 173   0.0000       0.350236         9.5304 
 174   0.0000       0.359540         9.7836 
 175   0.0000       0.359785         9.7903 
 176   0.0000       0.361666         9.8414 
 177   0.0000       0.370182        10.0732 
 178   0.0000       0.370462        10.0808 
 179   0.0000       0.378855        10.3092 
 180   0.0000       0.383806        10.4439 
 181   0.0000       0.389033        10.5861 
 182   0.0000       0.389156        10.5895 
 183   0.0000       0.399228        10.8635 
 184   0.0000       0.399721        10.8770 
 185   0.0000       0.399892        10.8816 
 186   0.0000       0.407699        11.0940 
 187   0.0000       0.408160        11.1066 
 188   0.0000       0.410117        11.1599 
 189   0.0000       0.420833        11.4514 
 190   0.0000       0.421019        11.4565 
 191   0.0000       0.426792        11.6136 
 192   0.0000       0.440544        11.9878 
 193   0.0000       0.440735        11.9930 
 194   0.0000       0.442586        12.0434 
 195   0.0000       0.453640        12.3442 
 196   0.0000       0.453880        12.3507 
 197   0.0000       0.463004        12.5990 
 198   0.0000       0.463657        12.6168 
 199   0.0000       0.467184        12.7127 
 200   0.0000       0.467390        12.7183 
 201   0.0000       0.478482        13.0202 
 202   0.0000       0.478855        13.0303 
 203   0.0000       0.482147        13.1199 
 204   0.0000       0.490595        13.3498 
 205   0.0000       0.493280        13.4228 
 206   0.0000       0.493492        13.4286 
 207   0.0000       0.501259        13.6399 
 208   0.0000       0.501594        13.6491 
 209   0.0000       0.502269        13.6674 
 210   0.0000       0.503117        13.6905 
 211   0.0000       0.503228        13.6935 
 212   0.0000       0.508398        13.8342 
 213   0.0000       0.511387        13.9156 
 214   0.0000       0.511816        13.9272 
 215   0.0000       0.526311        14.3216 
 216   0.0000       0.530695        14.4409 
 217   0.0000       0.536496        14.5988 
 218   0.0000       0.536699        14.6043 
 219   0.0000       0.540207        14.6998 
 220   0.0000       0.543633        14.7930 
 221   0.0000       0.546026        14.8581 
 222   0.0000       0.546205        14.8630 
 223   0.0000       0.565147        15.3784 
 224   0.0000       0.565192        15.3797 
 225   0.0000       0.569194        15.4886 
 226   0.0000       0.569579        15.4990 
 227   0.0000       0.570092        15.5130 
 228   0.0000       0.587155        15.9773 
 229   0.0000       0.587400        15.9840 
 230   0.0000       0.588984        16.0271 
 231   0.0000       0.597158        16.2495 
 232   0.0000       0.597358        16.2549 
 233   0.0000       0.604497        16.4492 
 234   0.0000       0.633812        17.2469 
 235   0.0000       0.641471        17.4553 
 236   0.0000       0.641668        17.4607 
 237   0.0000       0.652675        17.7602 
 238   0.0000       0.652869        17.7655 
 239   0.0000       0.655548        17.8384 
 240   0.0000       0.676411        18.4061 
 241   0.0000       0.676695        18.4138 
 242   0.0000       0.677051        18.4235 
 243   0.0000       0.693039        18.8585 
 244   0.0000       0.703260        19.1367 
 245   0.0000       0.703674        19.1480 
 246   0.0000       0.711438        19.3592 
 247   0.0000       0.711827        19.3698 
 248   0.0000       0.713408        19.4128 
 249   0.0000       0.713720        19.4213 
 250   0.0000       0.714238        19.4354 
 251   0.0000       0.730003        19.8644 
 252   0.0000       0.731724        19.9112 
 253   0.0000       0.732068        19.9206 
 254   0.0000       0.740436        20.1483 
 255   0.0000       0.741390        20.1742 
 256   0.0000       0.741506        20.1774 
 257   0.0000       0.741550        20.1786 
 258   0.0000       0.756901        20.5963 
 259   0.0000       0.757025        20.5997 
 260   0.0000       0.757260        20.6061 
 261   0.0000       0.772911        21.0320 
 262   0.0000       0.773020        21.0349 
 263   0.0000       0.773459        21.0469 
 264   0.0000       0.782787        21.3007 
 265   0.0000       0.795807        21.6550 
 266   0.0000       0.796151        21.6644 
 267   0.0000       0.811266        22.0757 
 268   0.0000       0.811329        22.0774 
 269   0.0000       0.824105        22.4250 
 270   0.0000       0.826927        22.5018 
 271   0.0000       0.827759        22.5245 
 272   0.0000       0.828061        22.5327 
 273   0.0000       0.846097        23.0235 
 274   0.0000       0.846722        23.0405 
 275   0.0000       0.862554        23.4713 
 276   0.0000       0.866476        23.5780 
 277   0.0000       0.869693        23.6655 
 278   0.0000       0.869828        23.6692 
 279   0.0000       0.874838        23.8055 
 280   0.0000       0.882754        24.0210 
 281   0.0000       0.882818        24.0227 
 282   0.0000       0.888440        24.1757 
 283   0.0000       0.891265        24.2526 
 284   0.0000       0.891631        24.2625 
 285   0.0000       0.894598        24.3433 
 286   0.0000       0.894894        24.3513 
 287   0.0000       0.900560        24.5055 
 288   0.0000       0.913325        24.8528 
 289   0.0000       0.913963        24.8702 
 290   0.0000       0.920814        25.0566 
 291   0.0000       0.942588        25.6491 
 292   0.0000       0.943045        25.6616 
 293   0.0000       0.944965        25.7138 
 294   0.0000       0.949678        25.8421 
 295   0.0000       0.957275        26.0488 
 296   0.0000       0.957542        26.0560 
 297   0.0000       0.957667        26.0594 
 298   0.0000       0.958940        26.0941 
 299   0.0000       0.959067        26.0976 
 300   0.0000       0.962212        26.1831 
 301   0.0000       0.969453        26.3802 
 302   0.0000       0.977563        26.6008 
 303   0.0000       0.977616        26.6023 
 304   0.0000       0.997831        27.1524 
 305   0.0000       0.997871        27.1534 
 306   0.0000       1.005833        27.3701 
 307   0.0000       1.006123        27.3780 
 308   0.0000       1.006220        27.3806 
 309   0.0000       1.012111        27.5410 
 310   0.0000       1.018878        27.7251 
 311   0.0000       1.040587        28.3158 
 312   0.0000       1.040679        28.3183 
 313   0.0000       1.045990        28.4628 
 314   0.0000       1.046419        28.4745 
 315   0.0000       1.057262        28.7696 
 316   0.0000       1.062595        28.9147 
 317   0.0000       1.065069        28.9820 
 318   0.0000       1.065282        28.9878 
 319   0.0000       1.072046        29.1719 
 320   0.0000       1.092782        29.7361 
 321   0.0000       1.093131        29.7456 
 322   0.0000       1.109037        30.1784 
 323   0.0000       1.109537        30.1920 
 324   0.0000       1.110004        30.2048 
 325   0.0000       1.127114        30.6703 
 326   0.0000       1.127658        30.6851 
 327   0.0000       1.137554        30.9544 
 328   0.0000       1.137847        30.9624 
 329   0.0000       1.137883        30.9634 
 330   0.0000       1.153901        31.3992 
 331   0.0000       1.154507        31.4157 
 332   0.0000       1.156879        31.4803 
 333   0.0000       1.173998        31.9461 
 334   0.0000       1.177777        32.0490 
 335   0.0000       1.180722        32.1291 
 336   0.0000       1.180950        32.1353 
 337   0.0000       1.189679        32.3728 
 338   0.0000       1.189996        32.3814 
 339   0.0000       1.190343        32.3909 
 340   0.0000       1.192014        32.4363 
 341   0.0000       1.199519        32.6406 
 342   0.0000       1.199719        32.6460 
 343   0.0000       1.212633        32.9974 
 344   0.0000       1.213715        33.0269 
 345   0.0000       1.233795        33.5733 
 346   0.0000       1.234836        33.6016 
 347   0.0000       1.249922        34.0121 
 348   0.0000       1.253271        34.1032 
 349   0.0000       1.253734        34.1158 
 350   0.0000       1.264754        34.4157 
 351   0.0000       1.265262        34.4295 
 352   0.0000       1.269186        34.5363 
 353   0.0000       1.271039        34.5867 
 354   0.0000       1.283462        34.9248 
 355   0.0000       1.283965        34.9385 
 356   0.0000       1.309161        35.6241 
 357   0.0000       1.309935        35.6451 
 358   0.0000       1.312921        35.7264 
 359   0.0000       1.317112        35.8404 
 360   0.0000       1.331178        36.2232 
 361   0.0000       1.331191        36.2235 
 362   0.0000       1.340454        36.4756 
 363   0.0000       1.350297        36.7435 
 364   0.0000       1.350390        36.7460 
 365   0.0000       1.360271        37.0149 
 366   0.0000       1.388105        37.7723 
 367   0.0000       1.388248        37.7761 
 368   0.0000       1.402845        38.1734 
 369   0.0000       1.415646        38.5217 
 370   0.0000       1.427383        38.8411 
 371   0.0000       1.427759        38.8513 
 372   0.0000       1.429078        38.8872 
 373   0.0000       1.429303        38.8933 
 374   0.0000       1.439284        39.1649 
 375   0.0000       1.452164        39.5154 
 376   0.0000       1.452250        39.5177 
 377   0.0000       1.462130        39.7866 
 378   0.0000       1.465306        39.8730 
 379   0.0000       1.468817        39.9686 
 380   0.0000       1.469083        39.9758 
 381   0.0000       1.496838        40.7310 
 382   0.0000       1.499665        40.8080 
 383   0.0000       1.500373        40.8272 
 384   0.0000       1.511544        41.1312 
 385   0.0000       1.511740        41.1365 
 386   0.0000       1.515333        41.2343 
 387   0.0000       1.516115        41.2556 
 388   0.0000       1.521460        41.4010 
 389   0.0000       1.524695        41.4891 
 390   0.0000       1.525129        41.5009 
 391   0.0000       1.525451        41.5096 
 392   0.0000       1.549550        42.1654 
 393   0.0000       1.549836        42.1732 
 394   0.0000       1.590667        43.2843 
 395   0.0000       1.591551        43.3083 
 396   0.0000       1.604784        43.6684 
 397   0.0000       1.606076        43.7036 
 398   0.0000       1.606229        43.7077 
 399   0.0000       1.626854        44.2689 
 400   0.0000       1.627708        44.2922 
 401   0.0000       1.628724        44.3198 
 402   0.0000       1.670446        45.4551 
 403   0.0000       1.671706        45.4894 
 404   0.0000       1.690255        45.9942 
 405   0.0000       1.702024        46.3144 
 406   0.0000       1.705478        46.4084 
 407   0.0000       1.706757        46.4432 
 408   0.0000       1.748993        47.5925 
 409   0.0000       1.766361        48.0651 
 410   0.0000       1.768649        48.1274 
 411   0.0000       1.769296        48.1450 
 412   0.0000       1.802215        49.0408 
 413   0.0000       1.802341        49.0442 
 414   0.0000       1.810396        49.2634 
 415   0.0000       1.810511        49.2665 
 416   0.0000       1.811988        49.3067 
 417   0.0000       1.824521        49.6477 
 418   0.0000       1.824693        49.6524 
 419   0.0000       1.829124        49.7730 
 420   0.0000       1.850077        50.3432 
 421   0.0000       1.850693        50.3599 
 422   0.0000       1.850859        50.3644 
 423   0.0000       1.865554        50.7643 
 424   0.0000       1.866510        50.7903 
 425   0.0000       1.866726        50.7962 
 426   0.0000       1.903769        51.8042 
 427   0.0000       1.906516        51.8789 
 428   0.0000       1.911761        52.0217 
 429   0.0000       1.912218        52.0341 
 430   0.0000       1.921786        52.2944 
 431   0.0000       1.922565        52.3157 
 432   0.0000       1.939835        52.7856 
 433   0.0000       1.940085        52.7924 
 434   0.0000       1.956103        53.2283 
 435   0.0000       1.986269        54.0491 
 436   0.0000       1.995890        54.3109 
 437   0.0000       1.996121        54.3172 
 438   0.0000       2.023415        55.0599 
 439   0.0000       2.024055        55.0773 
 440   0.0000       2.024988        55.1027 
 441   0.0000       2.032583        55.3094 
 442   0.0000       2.032864        55.3171 
 443   0.0000       2.033421        55.3322 
 444   0.0000       2.035023        55.3758 
 445   0.0000       2.055845        55.9424 
 446   0.0000       2.056008        55.9468 
 447   0.0000       2.062581        56.1257 
 448   0.0000       2.062704        56.1290 
 449   0.0000       2.078480        56.5583 
 450   0.0000       2.079698        56.5915 
 451   0.0000       2.097352        57.0719 
 452   0.0000       2.097530        57.0767 
 453   0.0000       2.100613        57.1606 
 454   0.0000       2.100732        57.1638 
 455   0.0000       2.112077        57.4725 
 456   0.0000       2.118515        57.6477 
 457   0.0000       2.122181        57.7475 
 458   0.0000       2.122217        57.7484 
 459   0.0000       2.129496        57.9465 
 460   0.0000       2.130197        57.9656 
 461   0.0000       2.133064        58.0436 
 462   0.0000       2.136689        58.1423 
 463   0.0000       2.152333        58.5680 
 464   0.0000       2.152542        58.5737 
 465   0.0000       2.158683        58.7408 
 466   0.0000       2.158895        58.7465 
 467   0.0000       2.162644        58.8485 
 468   0.0000       2.168806        59.0162 
 469   0.0000       2.168958        59.0204 
 470   0.0000       2.184512        59.4436 
 471   0.0000       2.207718        60.0751 
 472   0.0000       2.208937        60.1082 
 473   0.0000       2.209426        60.1215 
 474   0.0000       2.221231        60.4428 
 475   0.0000       2.224571        60.5336 
 476   0.0000       2.224632        60.5353 
 477   0.0000       2.238434        60.9109 
 478   0.0000       2.238744        60.9193 
 479   0.0000       2.252231        61.2863 
 480   0.0000       2.252817        61.3023 
 481   0.0000       2.256523        61.4031 
 482   0.0000       2.257420        61.4275 
 483   0.0000       2.265490        61.6471 
 484   0.0000       2.265782        61.6551 
 485   0.0000       2.275469        61.9187 
 486   0.0000       2.291251        62.3481 
 487   0.0000       2.291482        62.3544 
 488   0.0000       2.298338        62.5410 
 489   0.0000       2.320046        63.1317 
 490   0.0000       2.320953        63.1563 
 491   0.0000       2.331496        63.4432 
 492   0.0000       2.347513        63.8791 
 493   0.0000       2.347606        63.8816 
 494   0.0000       2.382151        64.8216 
 495   0.0000       2.394046        65.1453 
 496   0.0000       2.394899        65.1685 
 497   0.0000       2.403050        65.3903 
 498   0.0000       2.407374        65.5080 
 499   0.0000       2.407529        65.5122 
 500   0.0000       2.415587        65.7315 
 501   0.0000       2.418837        65.8199 
 502   0.0000       2.440834        66.4185 
 503   0.0000       2.440905        66.4204 
 504   0.0000       2.473985        67.3205 
 505   0.0000       2.474470        67.3338 
 506   0.0000       2.516169        68.4684 
 507   0.0000       2.535258        68.9879 
 508   0.0000       2.535543        68.9956 
 509   0.0000       2.535968        69.0072 
 510   0.0000       2.557035        69.5805 
 511   0.0000       2.557316        69.5881 
 512   0.0000       2.567833        69.8743 
 513   0.0000       2.568566        69.8942 
 514   0.0000       2.581500        70.2462 
 515   0.0000       2.581590        70.2486 
 516   0.0000       2.583906        70.3117 
 517   0.0000       2.584026        70.3149 
 518   0.0000       2.594611        70.6029 
 519   0.0000       2.594943        70.6120 
 520   0.0000       2.599214        70.7282 
 521   0.0000       2.620777        71.3150 
 522   0.0000       2.621518        71.3351 
 523   0.0000       2.625129        71.4334 
 524   0.0000       2.645019        71.9746 
 525   0.0000       2.651079        72.1395 
 526   0.0000       2.651150        72.1415 
 527   0.0000       2.655299        72.2544 
 528   0.0000       2.673530        72.7504 
 529   0.0000       2.673761        72.7567 
 530   0.0000       2.688572        73.1598 
 531   0.0000       2.695411        73.3459 
 532   0.0000       2.696099        73.3646 
 533   0.0000       2.696233        73.3682 
 534   0.0000       2.706411        73.6452 
 535   0.0000       2.707092        73.6637 
 536   0.0000       2.714799        73.8734 
 537   0.0000       2.715457        73.8914 
 538   0.0000       2.722891        74.0936 
 539   0.0000       2.723050        74.0979 
 540   0.0000       2.735924        74.4483 
 541   0.0000       2.736263        74.4575 
 542   0.0000       2.754756        74.9607 
 543   0.0000       2.787586        75.8541 
 544   0.0000       2.788245        75.8720 
 545   0.0000       2.788400        75.8762 
 546   0.0000       2.800886        76.2160 
 547   0.0000       2.801087        76.2215 
 548   0.0000       2.807108        76.3853 
 549   0.0000       2.833828        77.1124 
 550   0.0000       2.833962        77.1160 
 551   0.0000       2.855588        77.7045 
 552   0.0000       2.860194        77.8298 
 553   0.0000       2.870894        78.1210 
 554   0.0000       2.871186        78.1289 
 555   0.0000       2.876554        78.2750 
 556   0.0000       2.881725        78.4157 
 557   0.0000       2.881781        78.4173 
 558   0.0000       2.893372        78.7327 
 559   0.0000       2.896377        78.8144 
 560   0.0000       2.896535        78.8187 
 561   0.0000       2.915043        79.3223 
 562   0.0000       2.918508        79.4166 
 563   0.0000       2.918595        79.4190 
 564   0.0000       2.920245        79.4639 
 565   0.0000       2.923435        79.5507 
 566   0.0000       2.923829        79.5614 
 567   0.0000       2.930500        79.7429 
 568   0.0000       2.930702        79.7485 
 569   0.0000       2.941225        80.0348 
 570   0.0000       2.941713        80.0481 
 571   0.0000       2.947126        80.1954 
 572   0.0000       2.959716        80.5380 
 573   0.0000       2.974081        80.9289 
 574   0.0000       2.974325        80.9355 
 575   0.0000       2.978654        81.0533 
 576   0.0000       2.978703        81.0546 
 577   0.0000       2.983420        81.1830 
 578   0.0000       2.988454        81.3200 
 579   0.0000       2.997592        81.5686 
 580   0.0000       2.997848        81.5756 
 581   0.0000       3.006547        81.8123 
 582   0.0000       3.012036        81.9617 
 583   0.0000       3.022712        82.2522 
 584   0.0000       3.023316        82.2686 
 585   0.0000       3.032010        82.5052 
 586   0.0000       3.032170        82.5095 
 587   0.0000       3.037825        82.6634 
 588   0.0000       3.050711        83.0141 
 589   0.0000       3.051026        83.0226 
 590   0.0000       3.064814        83.3978 
 591   0.0000       3.064893        83.4000 
 592   0.0000       3.066742        83.4503 
 593   0.0000       3.066897        83.4545 
 594   0.0000       3.076382        83.7126 
 595   0.0000       3.078797        83.7783 
 596   0.0000       3.079140        83.7877 
 597   0.0000       3.096579        84.2622 
 598   0.0000       3.097311        84.2821 
 599   0.0000       3.097504        84.2874 
 600   0.0000       3.111505        84.6684 
 601   0.0000       3.111846        84.6776 
 602   0.0000       3.112116        84.6850 
 603   0.0000       3.124943        85.0340 
 604   0.0000       3.125193        85.0408 
 605   0.0000       3.141458        85.4834 
 606   0.0000       3.142926        85.5234 
 607   0.0000       3.143161        85.5298 
 608   0.0000       3.160912        86.0128 
 609   0.0000       3.166104        86.1541 
 610   0.0000       3.166483        86.1644 
 611   0.0000       3.170947        86.2859 
 612   0.0000       3.174027        86.3697 
 613   0.0000       3.175285        86.4039 
 614   0.0000       3.175409        86.4073 
[...]
      f-2     :     0.000243
      f+3     :     0.000426
      f-3     :     0.000429
 15 F s       :     3.578138  s :     3.578138
      pz      :     1.654017  p :     5.158631
      px      :     1.807598
      py      :     1.697016
      dz2     :     0.008366  d :     0.032748
      dxz     :     0.005055
      dyz     :     0.010909
      dx2y2   :     0.004052
      dxy     :     0.004366
      f0      :     0.000249  f :     0.001605
      f+1     :     0.000120
      f-1     :     0.000436
      f+2     :     0.000309
      f-2     :     0.000307
      f+3     :     0.000093
      f-3     :     0.000090
 16 F s       :     3.574794  s :     3.574794
      pz      :     1.690354  p :     5.157378
      px      :     1.654015
      py      :     1.813008
      dz2     :     0.006602  d :     0.031865
      dxz     :     0.010914
      dyz     :     0.003983
      dx2y2   :     0.005722
      dxy     :     0.004643
      f0      :     0.000181  f :     0.001542
      f+1     :     0.000409
      f-1     :     0.000058
      f+2     :     0.000335
      f-2     :     0.000289
      f+3     :     0.000132
      f-3     :     0.000138
 17 F s       :     3.574676  s :     3.574676
      pz      :     1.747661  p :     5.157026
      px      :     1.597989
      py      :     1.811376
      dz2     :     0.004900  d :     0.031895
      dxz     :     0.010109
      dyz     :     0.002377
      dx2y2   :     0.008139
      dxy     :     0.006369
      f0      :     0.000133  f :     0.001544
      f+1     :     0.000349
      f-1     :     0.000018
      f+2     :     0.000328
      f-2     :     0.000222
      f+3     :     0.000242
      f-3     :     0.000251
 18 F s       :     3.578216  s :     3.578216
      pz      :     1.684129  p :     5.158673
      px      :     1.776812
      py      :     1.697732
      dz2     :     0.007437  d :     0.032738
      dxz     :     0.005495
      dyz     :     0.009402
      dx2y2   :     0.004513
      dxy     :     0.005891
      f0      :     0.000194  f :     0.001605
      f+1     :     0.000154
      f-1     :     0.000351
      f+2     :     0.000286
      f-2     :     0.000347
      f+3     :     0.000139
      f-3     :     0.000135
 19 F s       :     3.574265  s :     3.574265
      pz      :     1.799547  p :     5.145865
      px      :     1.751674
      py      :     1.594645
      dz2     :     0.004069  d :     0.033011
      dxz     :     0.002564
      dyz     :     0.006946
      dx2y2   :     0.009170
      dxy     :     0.010262
      f0      :     0.000160  f :     0.001636
      f+1     :     0.000083
      f-1     :     0.000225
      f+2     :     0.000127
      f-2     :     0.000237
      f+3     :     0.000401
      f-3     :     0.000403
 20 F s       :     3.578137  s :     3.578137
      pz      :     1.754303  p :     5.158548
      px      :     1.595044
      py      :     1.809201
      dz2     :     0.004961  d :     0.032745
      dxz     :     0.010024
      dyz     :     0.002503
      dx2y2   :     0.008619
      dxy     :     0.006639
      f0      :     0.000137  f :     0.001606
      f+1     :     0.000355
      f-1     :     0.000025
      f+2     :     0.000324
      f-2     :     0.000232
      f+3     :     0.000270
      f-3     :     0.000263
 21 F s       :     3.574617  s :     3.574617
      pz      :     1.682036  p :     5.156916
      px      :     1.771794
      py      :     1.703087
      dz2     :     0.007067  d :     0.031892
      dxz     :     0.005877
      dyz     :     0.008892
      dx2y2   :     0.004428
      dxy     :     0.005627
      f0      :     0.000182  f :     0.001545
      f+1     :     0.000169
      f-1     :     0.000311
      f+2     :     0.000284
      f-2     :     0.000339
      f+3     :     0.000129
      f-3     :     0.000132
 22 B s       :     2.588473  s :     2.588473
      pz      :     0.282525  p :     1.902060
      px      :     0.815977
      py      :     0.803558
      dz2     :     0.056503  d :     0.641986
      dxz     :     0.100547
      dyz     :     0.088228
      dx2y2   :     0.203454
      dxy     :     0.193253
      f0      :     0.010912  f :     0.121492
      f+1     :     0.009160
      f-1     :     0.009539
      f+2     :     0.014945
      f-2     :     0.014708
      f+3     :     0.020867
      f-3     :     0.041361
 23 C s       :     2.693952  s :     2.693952
      pz      :     0.902998  p :     2.894434
      px      :     1.041989
      py      :     0.949447
      dz2     :     0.059224  d :     0.386158
      dxz     :     0.043504
      dyz     :     0.063832
      dx2y2   :     0.098359
      dxy     :     0.121239
      f0      :     0.003863  f :     0.046095
      f+1     :     0.005402
      f-1     :     0.005011
      f+2     :     0.005192
      f-2     :     0.008166
      f+3     :     0.007938
      f-3     :     0.010523
 24 C s       :     2.701851  s :     2.701851
      pz      :     0.855742  p :     2.679528
      px      :     0.986976
      py      :     0.836810
      dz2     :     0.093399  d :     0.696402
      dxz     :     0.125243
      dyz     :     0.118433
      dx2y2   :     0.187238
      dxy     :     0.172088
      f0      :     0.009779  f :     0.116039
      f+1     :     0.010316
      f-1     :     0.015220
      f+2     :     0.019338
      f-2     :     0.016898
      f+3     :     0.016639
      f-3     :     0.027848
 25 C s       :     2.706390  s :     2.706390
      pz      :     0.917080  p :     2.735145
      px      :     0.967786
      py      :     0.850279
      dz2     :     0.092001  d :     0.674503
      dxz     :     0.116306
      dyz     :     0.109327
      dx2y2   :     0.180690
      dxy     :     0.176178
      f0      :     0.009741  f :     0.114919
      f+1     :     0.011281
      f-1     :     0.013130
      f+2     :     0.016156
      f-2     :     0.017348
      f+3     :     0.018784
      f-3     :     0.028480
 26 C s       :     2.701919  s :     2.701919
      pz      :     0.886561  p :     2.679592
      px      :     0.963703
      py      :     0.829328
      dz2     :     0.092920  d :     0.696330
      dxz     :     0.123014
      dyz     :     0.110191
      dx2y2   :     0.189708
      dxy     :     0.180498
      f0      :     0.009473  f :     0.116003
      f+1     :     0.010554
      f-1     :     0.013390
      f+2     :     0.018100
      f-2     :     0.016647
      f+3     :     0.018121
      f-3     :     0.029717
 27 C s       :     2.709264  s :     2.709264
      pz      :     0.925262  p :     2.701595
      px      :     0.764547
      py      :     1.011786
      dz2     :     0.092438  d :     0.688383
      dxz     :     0.153531
      dyz     :     0.065822
      dx2y2   :     0.182060
      dxy     :     0.194533
      f0      :     0.010856  f :     0.117341
      f+1     :     0.015758
      f-1     :     0.006653
      f+2     :     0.021535
      f-2     :     0.008296
      f+3     :     0.021815
      f-3     :     0.032427
 28 C s       :     2.706461  s :     2.706461
      pz      :     0.889014  p :     2.735227
      px      :     0.988301
      py      :     0.857912
      dz2     :     0.095078  d :     0.674309
      dxz     :     0.122810
      dyz     :     0.113090
      dx2y2   :     0.173728
      dxy     :     0.169603
      f0      :     0.009978  f :     0.114854
      f+1     :     0.011089
      f-1     :     0.015007
      f+2     :     0.018120
      f-2     :     0.017413
      f+3     :     0.016881
      f-3     :     0.026366
 29 F s       :     3.574454  s :     3.574454
      pz      :     1.738161  p :     5.156600
      px      :     1.766439
      py      :     1.652000
      dz2     :     0.005201  d :     0.031906
      dxz     :     0.004101
      dyz     :     0.008597
      dx2y2   :     0.006475
      dxy     :     0.007531
      f0      :     0.000133  f :     0.001546
      f+1     :     0.000092
      f-1     :     0.000284
      f+2     :     0.000246
      f-2     :     0.000317
      f+3     :     0.000233
      f-3     :     0.000241
 30 F s       :     3.578133  s :     3.578133
      pz      :     1.773066  p :     5.158603
      px      :     1.738458
      py      :     1.647080
      dz2     :     0.004649  d :     0.032757
      dxz     :     0.004489
      dyz     :     0.007084
      dx2y2   :     0.007185
      dxy     :     0.009350
      f0      :     0.000139  f :     0.001606
      f+1     :     0.000118
      f-1     :     0.000236
      f+2     :     0.000160
      f-2     :     0.000329
      f+3     :     0.000316
      f-3     :     0.000309
 31 F s       :     3.574511  s :     3.574511
      pz      :     1.765954  p :     5.156681
      px      :     1.745833
      py      :     1.644895
      dz2     :     0.004506  d :     0.031900
      dxz     :     0.004061
      dyz     :     0.007351
      dx2y2   :     0.007098
      dxy     :     0.008885
      f0      :     0.000133  f :     0.001545
      f+1     :     0.000100
      f-1     :     0.000234
      f+2     :     0.000178
      f-2     :     0.000308
      f+3     :     0.000293
      f-3     :     0.000300
 32 F s       :     3.578257  s :     3.578257
      pz      :     1.741945  p :     5.158725
      px      :     1.761450
      py      :     1.655331
      dz2     :     0.005542  d :     0.032739
      dxz     :     0.004536
      dyz     :     0.008360
      dx2y2   :     0.006372
      dxy     :     0.007930
      f0      :     0.000138  f :     0.001605
      f+1     :     0.000117
      f-1     :     0.000292
      f+2     :     0.000233
      f-2     :     0.000337
      f+3     :     0.000247
      f-3     :     0.000241
 33 F s       :     3.574130  s :     3.574130
      pz      :     1.803499  p :     5.145469
      px      :     1.522630
      py      :     1.819340
      dz2     :     0.003965  d :     0.033025
      dxz     :     0.008962
      dyz     :     0.000167
      dx2y2   :     0.011834
      dxy     :     0.008096
      f0      :     0.000168  f :     0.001637
      f+1     :     0.000270
      f-1     :     0.000025
      f+2     :     0.000302
      f-2     :     0.000018
      f+3     :     0.000425
      f-3     :     0.000429


                      *****************************
                      * MAYER POPULATION ANALYSIS *
                      *****************************

  NA   - Mulliken gross atomic population
  ZA   - Total nuclear charge
  QA   - Mulliken gross atomic charge
  VA   - Mayer's total valence
  BVA  - Mayer's bonded valence
  FA   - Mayer's free valence

  ATOM       NA         ZA         QA         VA         BVA        FA
  0 C      5.8533     6.0000     0.1467     4.0402     4.0402    -0.0000
  1 C      5.7340     6.0000     0.2660     3.8176     3.8176    -0.0000
  2 C      5.7795     6.0000     0.2205     3.9263     3.9263    -0.0000
  3 C      6.2576     6.0000    -0.2576     3.6654     3.6654    -0.0000
  4 C      5.8541     6.0000     0.1459     4.0407     4.0407    -0.0000
  5 C      5.7321     6.0000     0.2679     3.8131     3.8131    -0.0000
  6 C      6.2695     6.0000    -0.2695     3.6809     3.6809    -0.0000
  7 C      5.7230     6.0000     0.2770     3.8059     3.8059    -0.0000
  8 C      5.8631     6.0000     0.1369     4.0403     4.0403    -0.0000
  9 C      5.7257     6.0000     0.2743     3.8072     3.8072    -0.0000
 10 C      5.8586     6.0000     0.1414     4.0389     4.0389    -0.0000
 11 C      5.7788     6.0000     0.2212     3.9226     3.9226    -0.0000
 12 F      9.1782     9.0000    -0.1782     1.1230     1.1230    -0.0000
 13 F      9.1870     9.0000    -0.1870     1.1063     1.1063    -0.0000
 14 F      9.1680     9.0000    -0.1680     1.1386     1.1386    -0.0000
 15 F      9.1781     9.0000    -0.1781     1.1230     1.1230    -0.0000
 16 F      9.1871     9.0000    -0.1871     1.1056     1.1056    -0.0000
 17 F      9.1860     9.0000    -0.1860     1.1084     1.1084    -0.0000
 18 F      9.1771     9.0000    -0.1771     1.1252     1.1252    -0.0000
 19 F      9.1667     9.0000    -0.1667     1.1415     1.1415    -0.0000
 20 F      9.1769     9.0000    -0.1769     1.1251     1.1251    -0.0000
 21 F      9.1860     9.0000    -0.1860     1.1084     1.1084    -0.0000
 22 B      4.6760     5.0000     0.3240     3.2689     3.2689    -0.0000
 23 C      6.2483     6.0000    -0.2483     3.6830     3.6830    -0.0000
 24 C      5.7311     6.0000     0.2689     3.8081     3.8081    -0.0000
 25 C      5.8567     6.0000     0.1433     4.0404     4.0404    -0.0000
 26 C      5.7329     6.0000     0.2671     3.8122     3.8122    -0.0000
 27 C      5.7805     6.0000     0.2195     3.9244     3.9244    -0.0000
 28 C      5.8589     6.0000     0.1411     4.0419     4.0419    -0.0000
 29 F      9.1866     9.0000    -0.1866     1.1075     1.1075    -0.0000
 30 F      9.1775     9.0000    -0.1775     1.1248     1.1248    -0.0000
 31 F      9.1865     9.0000    -0.1865     1.1080     1.1080    -0.0000
 32 F      9.1778     9.0000    -0.1778     1.1245     1.1245    -0.0000
 33 F      9.1668     9.0000    -0.1668     1.1415     1.1415    -0.0000

  Mayer bond orders larger than 0.100000
B(  0-C ,  1-C ) :   1.4195 B(  0-C ,  2-C ) :   1.3884 B(  0-C , 12-F ) :   1.0645 
B(  1-C ,  3-C ) :   1.2995 B(  1-C , 13-F ) :   0.9831 B(  2-C ,  4-C ) :   1.3883 
B(  2-C , 14-F ) :   1.0404 B(  3-C ,  5-C ) :   1.2980 B(  3-C , 22-B ) :   0.9736 
B(  4-C ,  5-C ) :   1.4186 B(  4-C , 15-F ) :   1.0649 B(  5-C , 16-F ) :   0.9828 
B(  6-C ,  7-C ) :   1.3016 B(  6-C ,  9-C ) :   1.3005 B(  6-C , 22-B ) :   0.9778 
B(  7-C ,  8-C ) :   1.4116 B(  7-C , 21-F ) :   0.9870 B(  8-C , 11-C ) :   1.3885 
B(  8-C , 20-F ) :   1.0700 B(  9-C , 10-C ) :   1.4132 B(  9-C , 17-F ) :   0.9865 
B( 10-C , 11-C ) :   1.3872 B( 10-C , 18-F ) :   1.0693 B( 11-C , 19-F ) :   1.0462 
B( 22-B , 23-C ) :   0.9814 B( 23-C , 24-C ) :   1.3001 B( 23-C , 26-C ) :   1.3002 
B( 24-C , 25-C ) :   1.4166 B( 24-C , 29-F ) :   0.9841 B( 25-C , 27-C ) :   1.3877 
B( 25-C , 30-F ) :   1.0682 B( 26-C , 28-C ) :   1.4170 B( 26-C , 31-F ) :   0.9858 
B( 27-C , 28-C ) :   1.3882 B( 27-C , 33-F ) :   1.0452 B( 28-C , 32-F ) :   1.0678 


-------
TIMINGS
-------

Total SCF time: 0 days 0 hours 47 min 27 sec 

Total time                  ....    2847.919 sec
Sum of individual times     ....    2844.446 sec  ( 99.9%)

Fock matrix formation       ....    2834.390 sec  ( 99.5%)
  XC integration            ....      12.803 sec  (  0.5% of F)
    Basis function eval.    ....       2.365 sec  ( 18.5% of XC)
    Density eval.           ....       4.028 sec  ( 31.5% of XC)
    XC-Functional eval.     ....       0.621 sec  (  4.8% of XC)
    XC-Potential eval.      ....       5.331 sec  ( 41.6% of XC)
Diagonalization             ....       0.622 sec  (  0.0%)
Density matrix formation    ....       0.161 sec  (  0.0%)
Population analysis         ....       0.705 sec  (  0.0%)
Initial guess               ....       1.210 sec  (  0.0%)
Orbital Transformation      ....       0.000 sec  (  0.0%)
Orbital Orthonormalization  ....       1.117 sec  (  0.0%)
DIIS solution               ....       0.324 sec  (  0.0%)
SOSCF solution              ....       2.626 sec  (  0.1%)
Grid generation             ....       4.409 sec  (  0.2%)


-------------------------------------------------------------------------------
                          DFT DISPERSION CORRECTION                            
                                                                               
                              DFTD3 V3.1  Rev 1                                
                              USING zero damping                               
-------------------------------------------------------------------------------
The omegaB97X-D3 functional is recognized. Fit by Chai et al.
Active option DFTDOPT                   ...         3   

molecular C6(AA) [au] = 17859.889250 


            DFT-D V3
 parameters
 s6 scaling factor         :     1.0000 
 rs6 scaling factor        :     1.2810 
 s8 scaling factor         :     1.0000 
 rs8 scaling factor        :     1.0940 
 Damping factor alpha6     :    14.0000 
 Damping factor alpha8     :    16.0000 
 ad hoc parameters k1-k3   :    16.0000     1.3333    -4.0000 

 Edisp/kcal,au: -11.626268140017  -0.018527635646 
 E6   /kcal   :  -5.492846763 
 E8   /kcal   :  -6.133421377 
 % E8         :  52.754859112 

-------------------------   ----------------
Dispersion correction           -0.018527636
-------------------------   ----------------


-------------------------   --------------------
FINAL SINGLE POINT ENERGY     -2208.646460658837
-------------------------   --------------------

                                *** OPTIMIZATION RUN DONE ***

                            ***************************************
                            *     ORCA property calculations      *
                            ***************************************

                                    ---------------------
                                    Active property flags
                                    ---------------------
   (+) Dipole Moment


------------------------------------------------------------------------------
                       ORCA ELECTRIC PROPERTIES CALCULATION
------------------------------------------------------------------------------

Dipole Moment Calculation                       ... on
Quadrupole Moment Calculation                   ... off
Polarizability Calculation                      ... off
GBWName                                         ... BCF.gbw
Electron density file                           ... BCF.scfp
The origin for moment calculation is the CENTER OF MASS  = (-5.933227,  3.154856  1.236762)

-------------
DIPOLE MOMENT
-------------
                                X             Y             Z
Electronic contribution:     -0.01392      -0.00237       0.01049
Nuclear contribution   :     -0.00303      -0.00167      -0.01151
                        -----------------------------------------
Total Dipole Moment    :     -0.01694      -0.00404      -0.00102
                        -----------------------------------------
Magnitude (a.u.)       :      0.01745
Magnitude (Debye)      :      0.04435



--------------------
Rotational spectrum 
--------------------
 
Rotational constants in cm-1:     0.003933     0.003926     0.002307 
Rotational constants in MHz :   117.903236   117.703997    69.176353 

 Dipole components along the rotational axes: 
x,y,z [a.u.] :     0.010507    -0.013773    -0.002089 
x,y,z [Debye]:     0.026706    -0.035008    -0.005309 

 
--------------------------------------------------------------------------
[[49635,1],0]: A high-performance Open MPI point-to-point messaging module
was unable to find any relevant network interfaces:

Module: OpenFabrics (openib)
  Host: compute-1-12

Another transport will be used instead, although this may result in
lower performance.

NOTE: You can disable this warning by setting the MCA parameter
btl_base_warn_component_unused to 0.
--------------------------------------------------------------------------
[compute-1-12.local:27352] 3 more processes have sent help message help-mpi-btl-base.txt / btl:no-nics
[compute-1-12.local:27352] Set MCA parameter "orte_base_help_aggregate" to 0 to see all help / error messages

Timings for individual modules:

Sum of individual times         ...   112328.549 sec (=1872.142 min)
GTO integral calculation        ...       38.413 sec (=   0.640 min)   0.0 %
SCF iterations                  ...    70560.109 sec (=1176.002 min)  62.8 %
SCF Gradient evaluation         ...    41725.302 sec (= 695.422 min)  37.1 %
Geometry relaxation             ...        4.726 sec (=   0.079 min)   0.0 %
                             ****ORCA TERMINATED NORMALLY****
TOTAL RUN TIME: 1 days 7 hours 12 minutes 13 seconds 457 msec
