Warning: no access to tty (Bad file descriptor).
Thus no job control in this shell.

                                 *****************
                                 * O   R   C   A *
                                 *****************

           --- An Ab Initio, DFT and Semiempirical electronic structure package ---

                  #######################################################
                  #                        -***-                        #
                  #          Department of theory and spectroscopy      #
                  #               Directorship: Frank Neese             #
                  #        Max Planck Institute fuer Kohlenforschung    #
                  #                Kaiser Wilhelm Platz 1               #
                  #                 D-45470 Muelheim/Ruhr               #
                  #                      Germany                        #
                  #                                                     #
                  #                  All rights reserved                #
                  #                        -***-                        #
                  #######################################################


                         Program Version 4.2.1 -  RELEASE  -


 With contributions from (in alphabetic order):
   Daniel Aravena         : Magnetic Suceptibility
   Michael Atanasov       : Ab Initio Ligand Field Theory (pilot matlab implementation)
   Alexander A. Auer      : GIAO ZORA, VPT2
   Ute Becker             : Parallelization
   Giovanni Bistoni       : ED, misc. LED, open-shell LED, HFLD
   Martin Brehm           : Molecular dynamics
   Dmytro Bykov           : SCF Hessian
   Vijay G. Chilkuri      : MRCI spin determinant printing, contributions to CSF-ICE
   Dipayan Datta          : RHF DLPNO-CCSD density
   Achintya Kumar Dutta   : EOM-CC, STEOM-CC
   Dmitry Ganyushin       : Spin-Orbit,Spin-Spin,Magnetic field MRCI
   Miquel Garcia          : C-PCM Hessian, Gaussian charge scheme
   Yang Guo               : DLPNO-NEVPT2, CIM, IAO-localization
   Andreas Hansen         : Spin unrestricted coupled pair/coupled cluster methods
   Benjamin Helmich-Paris : CASSCF linear response (MC-RPA)
   Lee Huntington         : MR-EOM, pCC
   Robert Izsak           : Overlap fitted RIJCOSX, COSX-SCS-MP3, EOM
   Christian Kollmar      : KDIIS, OOCD, Brueckner-CCSD(T), CCSD density
   Simone Kossmann        : Meta GGA functionals, TD-DFT gradient, OOMP2, MP2 Hessian
   Martin Krupicka        : AUTO-CI
   Lucas Lang             : DCDCAS
   Dagmar Lenk            : GEPOL surface, SMD
   Dimitrios Liakos       : Extrapolation schemes; Compound Job, initial MDCI parallelization
   Dimitrios Manganas     : Further ROCIS development; embedding schemes
   Dimitrios Pantazis     : SARC Basis sets
   Taras Petrenko         : DFT Hessian,TD-DFT gradient, ASA, ECA, R-Raman, ABS, FL, XAS/XES, NRVS
   Peter Pinski           : DLPNO-MP2, DLPNO-MP2 Gradient
   Christoph Reimann      : Effective Core Potentials
   Marius Retegan         : Local ZFS, SOC
   Christoph Riplinger    : Optimizer, TS searches, QM/MM, DLPNO-CCSD(T), (RO)-DLPNO pert. Triples
   Tobias Risthaus        : Range-separated hybrids, TD-DFT gradient, RPA, STAB
   Michael Roemelt        : Original ROCIS implementation
   Masaaki Saitow         : Open-shell DLPNO-CCSD energy and density
   Barbara Sandhoefer     : DKH picture change effects
   Avijit Sen             : IP-ROCIS
   Kantharuban Sivalingam : CASSCF convergence, NEVPT2, FIC-MRCI
   Bernardo de Souza      : ESD, SOC TD-DFT
   Georgi Stoychev        : AutoAux, RI-MP2 NMR
   Willem Van den Heuvel  : Paramagnetic NMR
   Boris Wezisla          : Elementary symmetry handling
   Frank Wennmohs         : Technical directorship


 We gratefully acknowledge several colleagues who have allowed us to
 interface, adapt or use parts of their codes:
   Stefan Grimme, W. Hujo, H. Kruse,             : VdW corrections, initial TS optimization,
                  C. Bannwarth                     DFT functionals, gCP, sTDA/sTD-DF
   Ed Valeev, F. Pavosevic, A. Kumar             : LibInt (2-el integral package), F12 methods
   Garnet Chan, S. Sharma, J. Yang, R. Olivares  : DMRG
   Ulf Ekstrom                                   : XCFun DFT Library
   Mihaly Kallay                                 : mrcc  (arbitrary order and MRCC methods)
   Andreas Klamt, Michael Diedenhofen            : otool_cosmo (COSMO solvation model)
   Jiri Pittner, Ondrej Demel                    : Mk-CCSD
   Frank Weinhold                                : gennbo (NPA and NBO analysis)
   Christopher J. Cramer and Donald G. Truhlar   : smd solvation model
   Lars Goerigk                                  : TD-DFT with DH, B97 family of functionals
   V. Asgeirsson, H. Jonsson                     : NEB implementation
   FAccTs GmbH                                   : IRC, NEB, NEB-TS, Multilevel, MM, QM/MM, CI optimization
   S Lehtola, MJT Oliveira, MAL Marques          : LibXC Library


 Your calculation uses the libint2 library for the computation of 2-el integrals
 For citations please refer to: http://libint.valeyev.net

 Your ORCA version has been built with support for libXC version: 4.2.3
 For citations please refer to: https://tddft.org/programs/libxc/

 This ORCA versions uses:
   CBLAS   interface :  Fast vector & matrix operations
   LAPACKE interface :  Fast linear algebra routines
   SCALAPACK package :  Parallel linear algebra routines


[file orca_tools/Tool-Scanner/qcscan1.cpp, line 102]: 
	 Unknown identifier in CPCM block line    7  : 
	 Last token : Â
[file orca_tools/Tool-Scanner/qcscan1.cpp, line 102]: 
	 Unknown identifier in CPCM block line    7  : 
	 Last token : Â
Warning: no access to tty (Bad file descriptor).
Thus no job control in this shell.

                                 *****************
                                 * O   R   C   A *
                                 *****************

           --- An Ab Initio, DFT and Semiempirical electronic structure package ---

                  #######################################################
                  #                        -***-                        #
                  #          Department of theory and spectroscopy      #
                  #               Directorship: Frank Neese             #
                  #        Max Planck Institute fuer Kohlenforschung    #
                  #                Kaiser Wilhelm Platz 1               #
                  #                 D-45470 Muelheim/Ruhr               #
                  #                      Germany                        #
                  #                                                     #
                  #                  All rights reserved                #
                  #                        -***-                        #
                  #######################################################


                         Program Version 4.2.1 -  RELEASE  -


 With contributions from (in alphabetic order):
   Daniel Aravena         : Magnetic Suceptibility
   Michael Atanasov       : Ab Initio Ligand Field Theory (pilot matlab implementation)
   Alexander A. Auer      : GIAO ZORA, VPT2
   Ute Becker             : Parallelization
   Giovanni Bistoni       : ED, misc. LED, open-shell LED, HFLD
   Martin Brehm           : Molecular dynamics
   Dmytro Bykov           : SCF Hessian
   Vijay G. Chilkuri      : MRCI spin determinant printing, contributions to CSF-ICE
   Dipayan Datta          : RHF DLPNO-CCSD density
   Achintya Kumar Dutta   : EOM-CC, STEOM-CC
   Dmitry Ganyushin       : Spin-Orbit,Spin-Spin,Magnetic field MRCI
   Miquel Garcia          : C-PCM Hessian, Gaussian charge scheme
   Yang Guo               : DLPNO-NEVPT2, CIM, IAO-localization
   Andreas Hansen         : Spin unrestricted coupled pair/coupled cluster methods
   Benjamin Helmich-Paris : CASSCF linear response (MC-RPA)
   Lee Huntington         : MR-EOM, pCC
   Robert Izsak           : Overlap fitted RIJCOSX, COSX-SCS-MP3, EOM
   Christian Kollmar      : KDIIS, OOCD, Brueckner-CCSD(T), CCSD density
   Simone Kossmann        : Meta GGA functionals, TD-DFT gradient, OOMP2, MP2 Hessian
   Martin Krupicka        : AUTO-CI
   Lucas Lang             : DCDCAS
   Dagmar Lenk            : GEPOL surface, SMD
   Dimitrios Liakos       : Extrapolation schemes; Compound Job, initial MDCI parallelization
   Dimitrios Manganas     : Further ROCIS development; embedding schemes
   Dimitrios Pantazis     : SARC Basis sets
   Taras Petrenko         : DFT Hessian,TD-DFT gradient, ASA, ECA, R-Raman, ABS, FL, XAS/XES, NRVS
   Peter Pinski           : DLPNO-MP2, DLPNO-MP2 Gradient
   Christoph Reimann      : Effective Core Potentials
   Marius Retegan         : Local ZFS, SOC
   Christoph Riplinger    : Optimizer, TS searches, QM/MM, DLPNO-CCSD(T), (RO)-DLPNO pert. Triples
   Tobias Risthaus        : Range-separated hybrids, TD-DFT gradient, RPA, STAB
   Michael Roemelt        : Original ROCIS implementation
   Masaaki Saitow         : Open-shell DLPNO-CCSD energy and density
   Barbara Sandhoefer     : DKH picture change effects
   Avijit Sen             : IP-ROCIS
   Kantharuban Sivalingam : CASSCF convergence, NEVPT2, FIC-MRCI
   Bernardo de Souza      : ESD, SOC TD-DFT
   Georgi Stoychev        : AutoAux, RI-MP2 NMR
   Willem Van den Heuvel  : Paramagnetic NMR
   Boris Wezisla          : Elementary symmetry handling
   Frank Wennmohs         : Technical directorship


 We gratefully acknowledge several colleagues who have allowed us to
 interface, adapt or use parts of their codes:
   Stefan Grimme, W. Hujo, H. Kruse,             : VdW corrections, initial TS optimization,
                  C. Bannwarth                     DFT functionals, gCP, sTDA/sTD-DF
   Ed Valeev, F. Pavosevic, A. Kumar             : LibInt (2-el integral package), F12 methods
   Garnet Chan, S. Sharma, J. Yang, R. Olivares  : DMRG
   Ulf Ekstrom                                   : XCFun DFT Library
   Mihaly Kallay                                 : mrcc  (arbitrary order and MRCC methods)
   Andreas Klamt, Michael Diedenhofen            : otool_cosmo (COSMO solvation model)
   Jiri Pittner, Ondrej Demel                    : Mk-CCSD
   Frank Weinhold                                : gennbo (NPA and NBO analysis)
   Christopher J. Cramer and Donald G. Truhlar   : smd solvation model
   Lars Goerigk                                  : TD-DFT with DH, B97 family of functionals
   V. Asgeirsson, H. Jonsson                     : NEB implementation
   FAccTs GmbH                                   : IRC, NEB, NEB-TS, Multilevel, MM, QM/MM, CI optimization
   S Lehtola, MJT Oliveira, MAL Marques          : LibXC Library


 Your calculation uses the libint2 library for the computation of 2-el integrals
 For citations please refer to: http://libint.valeyev.net

 Your ORCA version has been built with support for libXC version: 4.2.3
 For citations please refer to: https://tddft.org/programs/libxc/

 This ORCA versions uses:
   CBLAS   interface :  Fast vector & matrix operations
   LAPACKE interface :  Fast linear algebra routines
   SCALAPACK package :  Parallel linear algebra routines


Your calculation utilizes the atom-pairwise dispersion correction
with the zero-damping scheme (D30)
Cite in your paper:
S.Grimme, J.Antony, S.Ehrlich and H.Krieg, J.Chem.Phys., 132, (2010), 154104 
   

XCFun DFT library Copyright 2009-2010 Ulf Ekstrom and contributors.
See http://admol.org/xcfun for more information. This is free soft-
ware; see the source code for copying conditions. There is ABSOLUTELY
NO WARRANTY; not even for MERCHANTABILITY or FITNESS FOR A PARTICULAR
PURPOSE. For details see the documentation. Scientific users of this 
library should cite U. Ekstrom, L. Visscher, R. Bast, A. J. Thorvald-
sen and K. Ruud; J.Chem.Theor.Comp. 2010, DOI: 10.1021/ct100117s
XCFun Version 0.99 
----- Orbital basis set information -----
Your calculation utilizes the basis: def2-TZVP
   F. Weigend and R. Ahlrichs, Phys. Chem. Chem. Phys. 7, 3297 (2005).

----- AuxJ basis set information -----
Your calculation utilizes the auxiliary basis: def2/J
   F. Weigend, Phys. Chem. Chem. Phys. 8, 1057 (2006).

================================================================================
                                        WARNINGS
                       Please study these warnings very carefully!
================================================================================


WARNING: Geometry Optimization
  ===> : Switching off AutoStart
         For restart on a previous wavefunction, please use MOREAD

INFO   : the flag for use of LIBINT has been found!

================================================================================
                                       INPUT FILE
================================================================================
NAME = osc4T.inp
|  1> # avogadro generated ORCA input file 
|  2> # Basic Mode
|  3> # 
|  4> ! wB97X-D3 OPT def2-TZVP def2/J CPCM
|  5> %cpcm
|  6>   epsilon 3
|  7> end
|  8> %pal
|  9>  nprocs 4
| 10> end 
| 11> 
| 12> * xyz 0 1
| 13>    C       -6.45927        3.29015        0.00000
| 14>    C       -5.95320        1.99699        0.00000
| 15>    C       -3.93967        3.19400        0.00000
| 16>    C       -4.54726        1.93702        0.00000
| 17>    H       -4.00729        0.99875       -0.00000
| 18>    H       -6.59415        1.12408       -0.00000
| 19>    S       -5.16426        4.35571        0.00000
| 20>    H       -7.50656        3.56599        0.00000
| 21>    C       -2.49118        3.52136        0.00000
| 22>    C       -1.98282        4.81566        0.00000
| 23>    C       -0.58399        4.88925        0.00000
| 24>    C        0.04041        3.64501        0.00000
| 25>    H       -0.05027        5.82776        0.00000
| 26>    H       -2.61122        5.69726        0.00000
| 27>    S       -1.17491        2.45488        0.00000
| 28>    C        1.50991        3.41271        0.00000
| 29>    C        2.11177        2.15885        0.00000
| 30>    C        3.50844        2.20420        0.00000
| 31>    C        4.04417        3.48648        0.00000
| 32>    H        4.11569        1.30839       -0.00000
| 33>    H        1.56117        1.23041       -0.00000
| 34>    S        2.74749        4.58292        0.00000
| 35>    C        5.50396        3.76531        0.00000
| 36>    C        6.16366        4.99609        0.00000
| 37>    C        7.56696        4.87641        0.00000
| 38>    C        8.01924        3.56346        0.00000
| 39>    H        8.24526        5.72053        0.00000
| 40>    H        5.66434        5.95641        0.00000
| 41>    S        6.68140        2.55500        0.00000
| 42>    H        9.05348        3.24189        0.00000
| 43> *
| 44> 
| 45> 
| 46>                          ****END OF INPUT****
================================================================================

                       *****************************
                       * Geometry Optimization Run *
                       *****************************

Geometry optimization settings:
Update method            Update   .... BFGS
Choice of coordinates    CoordSys .... Z-matrix Internals
Initial Hessian          InHess   .... Almoef's Model

Convergence Tolerances:
Energy Change            TolE     ....  5.0000e-06 Eh
Max. Gradient            TolMAXG  ....  3.0000e-04 Eh/bohr
RMS Gradient             TolRMSG  ....  1.0000e-04 Eh/bohr
Max. Displacement        TolMAXD  ....  4.0000e-03 bohr
RMS Displacement         TolRMSD  ....  2.0000e-03 bohr
Strict Convergence                ....  False
------------------------------------------------------------------------------
                        ORCA OPTIMIZATION COORDINATE SETUP
------------------------------------------------------------------------------

The optimization will be done in new redundant internal coordinates
Making redundant internal coordinates   ...  (new redundants) done
Evaluating the initial hessian          ...  (Almloef) done
Evaluating the coordinates              ...  done
Calculating the B-matrix                .... done
Calculating the G-matrix                .... done
Diagonalizing the G-matrix              .... done
Small eigenvalue found = 2.524e-03
Small eigenvalue found = 9.226e-03
Small eigenvalue found = 1.270e-02
The first mode is                       ....   77
The number of degrees of freedom        ....   84

    -----------------------------------------------------------------
                    Redundant Internal Coordinates


    -----------------------------------------------------------------
         Definition                    Initial Value    Approx d2E/dq
    -----------------------------------------------------------------
      1. B(C   1,C   0)                  1.3887         0.627885   
      2. B(C   3,C   2)                  1.3961         0.610895   
      3. B(C   3,C   1)                  1.4072         0.586500   
      4. B(H   4,C   3)                  1.0826         0.370089   
      5. B(H   5,C   1)                  1.0830         0.369543   
      6. B(S   6,C   0)                  1.6770         0.586880   
      7. B(S   6,C   2)                  1.6880         0.563818   
      8. B(H   7,C   0)                  1.0830         0.369471   
      9. B(C   8,C   2)                  1.4850         0.440695   
     10. B(C   9,C   8)                  1.3906         0.623525   
     11. B(C  10,C   9)                  1.4008         0.600571   
     12. B(C  11,C  10)                  1.3921         0.619941   
     13. B(H  12,C  10)                  1.0797         0.374046   
     14. B(H  13,C   9)                  1.0826         0.369972   
     15. B(S  14,C   8)                  1.6941         0.551249   
     16. B(S  14,C  11)                  1.7010         0.537428   
     17. B(C  15,C  11)                  1.4877         0.436303   
     18. B(C  16,C  15)                  1.3908         0.622901   
     19. B(C  17,C  16)                  1.3974         0.608027   
     20. B(C  18,C  17)                  1.3897         0.625500   
     21. B(H  19,C  17)                  1.0822         0.370523   
     22. B(H  20,C  16)                  1.0794         0.374363   
     23. B(S  21,C  18)                  1.6981         0.543181   
     24. B(S  21,C  15)                  1.7032         0.533048   
     25. B(C  22,C  18)                  1.4862         0.438822   
     26. B(C  23,C  22)                  1.3964         0.610205   
     27. B(C  24,C  23)                  1.4084         0.583972   
     28. B(C  25,C  24)                  1.3887         0.627864   
     29. B(H  26,C  24)                  1.0829         0.369643   
     30. B(H  27,C  23)                  1.0824         0.370330   
     31. B(S  28,C  22)                  1.6886         0.562577   
     32. B(S  28,C  25)                  1.6754         0.590533   
     33. B(H  29,C  25)                  1.0831         0.369373   
     34. A(C   1,C   0,H   7)          126.1283         0.355208   
     35. A(S   6,C   0,H   7)          125.7961         0.369575   
     36. A(C   1,C   0,S   6)          108.0757         0.454775   
     37. A(C   0,C   1,C   3)          113.8150         0.430731   
     38. A(C   0,C   1,H   5)          122.3388         0.355220   
     39. A(C   3,C   1,H   5)          123.8462         0.351143   
     40. A(C   3,C   2,C   8)          128.5328         0.407341   
     41. A(S   6,C   2,C   8)          123.7745         0.423562   
     42. A(C   3,C   2,S   6)          107.6927         0.449228   
     43. A(C   2,C   3,H   4)          124.2819         0.353661   
     44. A(C   1,C   3,H   4)          122.3627         0.351231   
     45. A(C   1,C   3,C   2)          113.3554         0.428616   
     46. A(C   0,S   6,C   2)           97.0612         0.471033   
     47. A(C   2,C   8,C   9)          124.1783         0.408819   
     48. A(C   9,C   8,S  14)          107.5721         0.449058   
     49. A(C   2,C   8,S  14)          128.2497         0.421859   
     50. A(C   8,C   9,C  10)          114.4548         0.432028   
     51. A(C  10,C   9,H  13)          122.4696         0.352623   
     52. A(C   8,C   9,H  13)          123.0756         0.354870   
     53. A(C   9,C  10,H  12)          122.6379         0.353277   
     54. A(C  11,C  10,H  12)          123.7246         0.355183   
     55. A(C   9,C  10,C  11)          113.6375         0.431581   
     56. A(S  14,C  11,C  15)          126.6169         0.419202   
     57. A(C  10,C  11,C  15)          125.6320         0.407679   
     58. A(C  10,C  11,S  14)          107.7510         0.446528   
     59. A(C   8,S  14,C  11)           96.5846         0.461591   
     60. A(C  11,C  15,C  16)          124.6243         0.408022   
     61. A(C  16,C  15,S  21)          107.7560         0.446251   
     62. A(C  11,C  15,S  21)          127.6197         0.418591   
     63. A(C  15,C  16,C  17)          113.7815         0.432909   
     64. A(C  17,C  16,H  20)          122.5293         0.354067   
     65. A(C  15,C  16,H  20)          123.6892         0.355521   
     66. A(C  18,C  17,H  19)          123.1926         0.355150   
     67. A(C  16,C  17,H  19)          122.2727         0.353449   
     68. A(C  16,C  17,C  18)          114.5347         0.433234   
     69. A(S  21,C  18,C  22)          128.9693         0.420430   
     70. A(C  17,C  18,C  22)          123.4886         0.408740   
     71. A(C  17,C  18,S  21)          107.5421         0.448116   
     72. A(C  15,S  21,C  18)           96.3857         0.459663   
     73. A(C  23,C  22,S  28)          107.5973         0.448956   
     74. A(C  18,C  22,S  28)          123.3977         0.423073   
     75. A(C  18,C  22,C  23)          129.0050         0.406953   
     76. A(C  24,C  23,H  27)          122.3469         0.351013   
     77. A(C  22,C  23,H  27)          124.3364         0.353632   
     78. A(C  22,C  23,C  24)          113.3167         0.428197   
     79. A(C  25,C  24,H  26)          122.2085         0.355234   
     80. A(C  23,C  24,H  26)          123.9093         0.350903   
     81. A(C  23,C  24,C  25)          113.8823         0.430394   
     82. A(S  28,C  25,H  29)          125.7194         0.369953   
     83. A(C  24,C  25,H  29)          126.2793         0.355190   
     84. A(C  24,C  25,S  28)          108.0013         0.455287   
     85. A(C  22,S  28,C  25)           97.2024         0.471380   
     86. D(C   3,C   1,C   0,H   7)    180.0000         0.027323   
     87. D(H   5,C   1,C   0,S   6)    180.0000         0.027323   
     88. D(H   5,C   1,C   0,H   7)      0.0000         0.027323   
     89. D(C   3,C   1,C   0,S   6)      0.0000         0.027323   
     90. D(H   4,C   3,C   1,C   0)    180.0000         0.023658   
     91. D(C   2,C   3,C   1,H   5)    180.0000         0.023658   
     92. D(H   4,C   3,C   1,H   5)      0.0000         0.023658   
     93. D(C   2,C   3,C   1,C   0)      0.0000         0.023658   
     94. D(H   4,C   3,C   2,C   8)      0.0000         0.025779   
     95. D(H   4,C   3,C   2,S   6)    180.0000         0.025779   
     96. D(C   1,C   3,C   2,C   8)    180.0000         0.025779   
     97. D(C   1,C   3,C   2,S   6)      0.0000         0.025779   
     98. D(C   0,S   6,C   2,C   3)      0.0000         0.006272   
     99. D(C   2,S   6,C   0,C   1)      0.0000         0.006693   
    100. D(C   2,S   6,C   0,H   7)    180.0000         0.006693   
    101. D(C   0,S   6,C   2,C   8)    180.0000         0.006272   
    102. D(S  14,C   8,C   2,S   6)    180.0000         0.013251   
    103. D(S  14,C   8,C   2,C   3)      0.0000         0.013251   
    104. D(C   9,C   8,C   2,S   6)      0.0000         0.013251   
    105. D(C   9,C   8,C   2,C   3)    180.0000         0.013251   
    106. D(H  13,C   9,C   8,S  14)    180.0000         0.026921   
    107. D(H  13,C   9,C   8,C   2)      0.0000         0.026921   
    108. D(C  10,C   9,C   8,S  14)      0.0000         0.026921   
    109. D(C  10,C   9,C   8,C   2)    180.0000         0.026921   
    110. D(H  12,C  10,C   9,H  13)      0.0000         0.024867   
    111. D(H  12,C  10,C   9,C   8)    180.0000         0.024867   
    112. D(C  11,C  10,C   9,H  13)    180.0000         0.024867   
    113. D(C  11,C  10,C   9,C   8)      0.0000         0.024867   
    114. D(C  15,C  11,C  10,C   9)    180.0000         0.026594   
    115. D(S  14,C  11,C  10,H  12)    180.0000         0.026594   
    116. D(S  14,C  11,C  10,C   9)      0.0000         0.026594   
    117. D(C  15,C  11,C  10,H  12)      0.0000         0.026594   
    118. D(C   8,S  14,C  11,C  15)    180.0000         0.005813   
    119. D(C   8,S  14,C  11,C  10)      0.0000         0.005813   
    120. D(C  11,S  14,C   8,C   9)      0.0000         0.006050   
    121. D(C  11,S  14,C   8,C   2)    180.0000         0.006050   
    122. D(S  21,C  15,C  11,S  14)    180.0000         0.012995   
    123. D(S  21,C  15,C  11,C  10)      0.0000         0.012995   
    124. D(C  16,C  15,C  11,S  14)      0.0000         0.012995   
    125. D(C  16,C  15,C  11,C  10)    180.0000         0.012995   
    126. D(H  20,C  16,C  15,S  21)    180.0000         0.026864   
    127. D(H  20,C  16,C  15,C  11)      0.0000         0.026864   
    128. D(C  17,C  16,C  15,S  21)      0.0000         0.026864   
    129. D(C  17,C  16,C  15,C  11)    180.0000         0.026864   
    130. D(H  19,C  17,C  16,H  20)      0.0000         0.025523   
    131. D(H  19,C  17,C  16,C  15)    180.0000         0.025523   
    132. D(C  18,C  17,C  16,H  20)    180.0000         0.025523   
    133. D(C  18,C  17,C  16,C  15)      0.0000         0.025523   
    134. D(C  22,C  18,C  17,H  19)      0.0000         0.027103   
    135. D(C  22,C  18,C  17,C  16)    180.0000         0.027103   
    136. D(S  21,C  18,C  17,H  19)    180.0000         0.027103   
    137. D(S  21,C  18,C  17,C  16)      0.0000         0.027103   
    138. D(C  15,S  21,C  18,C  22)    180.0000         0.005911   
    139. D(C  15,S  21,C  18,C  17)      0.0000         0.005911   
    140. D(C  18,S  21,C  15,C  16)      0.0000         0.005739   
    141. D(C  18,S  21,C  15,C  11)    180.0000         0.005739   
    142. D(S  28,C  22,C  18,S  21)    180.0000         0.013141   
    143. D(S  28,C  22,C  18,C  17)      0.0000         0.013141   
    144. D(C  23,C  22,C  18,S  21)      0.0000         0.013141   
    145. D(C  23,C  22,C  18,C  17)    180.0000         0.013141   
    146. D(H  27,C  23,C  22,C  18)      0.0000         0.025717   
    147. D(C  24,C  23,C  22,S  28)      0.0000         0.025717   
    148. D(C  24,C  23,C  22,C  18)    180.0000         0.025717   
    149. D(H  27,C  23,C  22,S  28)    180.0000         0.025717   
    150. D(H  26,C  24,C  23,H  27)      0.0000         0.023445   
    151. D(H  26,C  24,C  23,C  22)    180.0000         0.023445   
    152. D(C  25,C  24,C  23,H  27)    180.0000         0.023445   
    153. D(C  25,C  24,C  23,C  22)      0.0000         0.023445   
    154. D(H  29,C  25,C  24,H  26)      0.0000         0.027321   
    155. D(H  29,C  25,C  24,C  23)    180.0000         0.027321   
    156. D(S  28,C  25,C  24,H  26)    180.0000         0.027321   
    157. D(S  28,C  25,C  24,C  23)      0.0000         0.027321   
    158. D(C  22,S  28,C  25,H  29)    180.0000         0.006762   
    159. D(C  22,S  28,C  25,C  24)      0.0000         0.006762   
    160. D(C  25,S  28,C  22,C  23)      0.0000         0.006249   
    161. D(C  25,S  28,C  22,C  18)    180.0000         0.006249   
    -----------------------------------------------------------------

Number of atoms                         .... 30
Number of degrees of freedom            .... 161

         *************************************************************
         *                GEOMETRY OPTIMIZATION CYCLE   1            *
         *************************************************************
---------------------------------
CARTESIAN COORDINATES (ANGSTROEM)
---------------------------------
  C     -6.459270    3.290150    0.000000
  C     -5.953200    1.996990    0.000000
  C     -3.939670    3.194000    0.000000
  C     -4.547260    1.937020    0.000000
  H     -4.007290    0.998750   -0.000000
  H     -6.594150    1.124080   -0.000000
  S     -5.164260    4.355710    0.000000
  H     -7.506560    3.565990    0.000000
  C     -2.491180    3.521360    0.000000
  C     -1.982820    4.815660    0.000000
  C     -0.583990    4.889250    0.000000
  C      0.040410    3.645010    0.000000
  H     -0.050270    5.827760    0.000000
  H     -2.611220    5.697260    0.000000
  S     -1.174910    2.454880    0.000000
  C      1.509910    3.412710    0.000000
  C      2.111770    2.158850    0.000000
  C      3.508440    2.204200    0.000000
  C      4.044170    3.486480    0.000000
  H      4.115690    1.308390   -0.000000
  H      1.561170    1.230410   -0.000000
  S      2.747490    4.582920    0.000000
  C      5.503960    3.765310    0.000000
  C      6.163660    4.996090    0.000000
  C      7.566960    4.876410    0.000000
  C      8.019240    3.563460    0.000000
  H      8.245260    5.720530    0.000000
  H      5.664340    5.956410    0.000000
  S      6.681400    2.555000    0.000000
  H      9.053480    3.241890    0.000000

----------------------------
CARTESIAN COORDINATES (A.U.)
----------------------------
  NO LB      ZA    FRAG     MASS         X           Y           Z
   0 C     6.0000    0    12.011  -12.206251    6.217482    0.000000
   1 C     6.0000    0    12.011  -11.249918    3.773764    0.000000
   2 C     6.0000    0    12.011   -7.444897    6.035785    0.000000
   3 C     6.0000    0    12.011   -8.593076    3.660437    0.000000
   4 H     1.0000    0     1.008   -7.572681    1.887364   -0.000000
   5 H     1.0000    0     1.008  -12.461138    2.124203   -0.000000
   6 S    16.0000    0    32.060   -9.759037    8.231099    0.000000
   7 H     1.0000    0     1.008  -14.185343    6.738744    0.000000
   8 C     6.0000    0    12.011   -4.707648    6.654406    0.000000
   9 C     6.0000    0    12.011   -3.746987    9.100279    0.000000
  10 C     6.0000    0    12.011   -1.103581    9.239344    0.000000
  11 C     6.0000    0    12.011    0.076364    6.888071    0.000000
  12 H     1.0000    0     1.008   -0.094997   11.012870    0.000000
  13 H     1.0000    0     1.008   -4.934491   10.766261    0.000000
  14 S    16.0000    0    32.060   -2.220258    4.639051    0.000000
  15 C     6.0000    0    12.011    2.853316    6.449087    0.000000
  16 C     6.0000    0    12.011    3.990667    4.079635    0.000000
  17 C     6.0000    0    12.011    6.629991    4.165334    0.000000
  18 C     6.0000    0    12.011    7.642374    6.588492    0.000000
  19 H     1.0000    0     1.008    7.777527    2.472499   -0.000000
  20 H     1.0000    0     1.008    2.950184    2.325138   -0.000000
  21 S    16.0000    0    32.060    5.192004    8.660464    0.000000
  22 C     6.0000    0    12.011   10.400977    7.115405    0.000000
  23 C     6.0000    0    12.011   11.647629    9.441242    0.000000
  24 C     6.0000    0    12.011   14.299482    9.215079    0.000000
  25 C     6.0000    0    12.011   15.154167    6.733963    0.000000
  26 H     1.0000    0     1.008   15.581283   10.810235    0.000000
  27 H     1.0000    0     1.008   10.704051   11.255984    0.000000
  28 S    16.0000    0    32.060   12.626016    4.828250    0.000000
  29 H     1.0000    0     1.008   17.108598    6.126284    0.000000

--------------------------------
INTERNAL COORDINATES (ANGSTROEM)
--------------------------------
 C      0   0   0     0.000000000000     0.00000000     0.00000000
 C      1   0   0     1.388657492148     0.00000000     0.00000000
 C      2   1   0     2.342463660551    80.64179962     0.00000000
 C      3   2   1     1.396124753917    33.47136114   180.00000085
 H      4   3   2     1.082551704908   124.28191266   180.00000000
 H      2   1   3     1.082953725050   122.33877126   180.00000000
 S      1   2   3     1.677041744770   108.07565104     0.00000000
 H      1   2   3     1.083006948131   126.12828401   180.00000085
 C      3   2   1     1.485021161364   162.00417696   180.00000000
 C      9   3   2     1.390554702124   124.17828021   180.00000085
 C     10   9   3     1.400764383114   114.45478066   180.00000085
 C     11  10   9     1.392123750821   113.63752803     0.00000000
 H     11  10   9     1.079656453924   122.63785369   180.00000085
 H     10   9   3     1.082638037388   123.07559550     0.00000000
 S      9   3   2     1.694091586456   128.24965481     0.00000000
 C     12  11  10     1.487747807930   125.63202033   180.00000000
 C     16  12  11     1.390827221189   124.62431092   180.00000000
 C     17  16  12     1.397406065322   113.78152753   180.00000000
 C     18  17  16     1.389693718522   114.53466732     0.00000000
 H     18  17  16     1.082232931767   122.27274072   180.00000085
 H     17  16  12     1.079426326157   123.68918431     0.00000000
 S     19  18  17     1.698104736464   107.54209880     0.00000000
 C     19  18  17     1.486180679796   123.48856087   180.00000085
 C     23  19  18     1.396432418128   129.00501705   180.00000000
 C     24  23  19     1.408394189281   113.31672097   180.00000000
 C     25  24  23     1.388666590979   113.88226646     0.00000000
 H     25  24  23     1.082880170841   123.90926536   180.00000000
 H     24  23  19     1.082374687805   124.33636975     0.00000000
 S     26  25  24     1.675352929147   108.00127383     0.00000000
 H     26  25  24     1.083078779452   126.27933098   180.00000000

---------------------------
INTERNAL COORDINATES (A.U.)
---------------------------
 C      0   0   0     0.000000000000     0.00000000     0.00000000
 C      1   0   0     2.624182353978     0.00000000     0.00000000
 C      2   1   0     4.426614797103    80.64179962     0.00000000
 C      3   2   1     2.638293433691    33.47136114   180.00000085
 H      4   3   2     2.045726248086   124.28191266   180.00000000
 H      2   1   3     2.046485956055   122.33877126   180.00000000
 S      1   2   3     3.169149612768   108.07565104     0.00000000
 H      1   2   3     2.046586533101   126.12828401   180.00000085
 C      3   2   1     2.806283298056   162.00417696   180.00000000
 C      9   3   2     2.627767561251   124.17828021   180.00000085
 C     10   9   3     2.647061062236   114.45478066   180.00000085
 C     11  10   9     2.630732633579   113.63752803     0.00000000
 H     11  10   9     2.040255016637   122.63785369   180.00000085
 H     10   9   3     2.045889392830   123.07559550     0.00000000
 S      9   3   2     3.201369144181   128.24965481     0.00000000
 C     12  11  10     2.811435913329   125.63202033   180.00000000
 C     16  12  11     2.628282547650   124.62431092   180.00000000
 C     17  16  12     2.640714761340   113.78152753   180.00000000
 C     18  17  16     2.626140538038   114.53466732     0.00000000
 H     18  17  16     2.045123854149   122.27274072   180.00000085
 H     17  16  12     2.039820138181   123.68918431     0.00000000
 S     19  18  17     3.208952898631   107.54209880     0.00000000
 C     19  18  17     2.808474470340   123.48856087   180.00000085
 C     23  19  18     2.638874834792   129.00501705   180.00000000
 C     24  23  19     2.661479306347   113.31672097   180.00000000
 C     25  24  23     2.624199548276   113.88226646     0.00000000
 H     25  24  23     2.046346958743   123.90926536   180.00000000
 H     24  23  19     2.045391734239   124.33636975     0.00000000
 S     26  25  24     3.165958213750   108.00127383     0.00000000
 H     26  25  24     2.046722274627   126.27933098   180.00000000

---------------------
BASIS SET INFORMATION
---------------------
There are 3 groups of distinct atoms

 Group   1 Type C   : 11s6p2d1f contracted to 5s3p2d1f pattern {62111/411/11/1}
 Group   2 Type H   : 5s1p contracted to 3s1p pattern {311/1}
 Group   3 Type S   : 14s9p3d1f contracted to 5s5p2d1f pattern {73211/51111/21/1}

Atom   0C    basis set group =>   1
Atom   1C    basis set group =>   1
Atom   2C    basis set group =>   1
Atom   3C    basis set group =>   1
Atom   4H    basis set group =>   2
Atom   5H    basis set group =>   2
Atom   6S    basis set group =>   3
Atom   7H    basis set group =>   2
Atom   8C    basis set group =>   1
Atom   9C    basis set group =>   1
Atom  10C    basis set group =>   1
Atom  11C    basis set group =>   1
Atom  12H    basis set group =>   2
Atom  13H    basis set group =>   2
Atom  14S    basis set group =>   3
Atom  15C    basis set group =>   1
Atom  16C    basis set group =>   1
Atom  17C    basis set group =>   1
Atom  18C    basis set group =>   1
Atom  19H    basis set group =>   2
Atom  20H    basis set group =>   2
Atom  21S    basis set group =>   3
Atom  22C    basis set group =>   1
Atom  23C    basis set group =>   1
Atom  24C    basis set group =>   1
Atom  25C    basis set group =>   1
Atom  26H    basis set group =>   2
Atom  27H    basis set group =>   2
Atom  28S    basis set group =>   3
Atom  29H    basis set group =>   2
---------------------------------
AUXILIARY/J BASIS SET INFORMATION
---------------------------------
There are 3 groups of distinct atoms

 Group   1 Type C   : 12s5p4d2f1g contracted to 6s4p3d1f1g pattern {711111/2111/211/2/1}
 Group   2 Type H   : 5s2p1d contracted to 3s1p1d pattern {311/2/1}
 Group   3 Type S   : 14s5p5d2f1g contracted to 8s4p3d1f1g pattern {71111111/2111/311/2/1}

Atom   0C    basis set group =>   1
Atom   1C    basis set group =>   1
Atom   2C    basis set group =>   1
Atom   3C    basis set group =>   1
Atom   4H    basis set group =>   2
Atom   5H    basis set group =>   2
Atom   6S    basis set group =>   3
Atom   7H    basis set group =>   2
Atom   8C    basis set group =>   1
Atom   9C    basis set group =>   1
Atom  10C    basis set group =>   1
Atom  11C    basis set group =>   1
Atom  12H    basis set group =>   2
Atom  13H    basis set group =>   2
Atom  14S    basis set group =>   3
Atom  15C    basis set group =>   1
Atom  16C    basis set group =>   1
Atom  17C    basis set group =>   1
Atom  18C    basis set group =>   1
Atom  19H    basis set group =>   2
Atom  20H    basis set group =>   2
Atom  21S    basis set group =>   3
Atom  22C    basis set group =>   1
Atom  23C    basis set group =>   1
Atom  24C    basis set group =>   1
Atom  25C    basis set group =>   1
Atom  26H    basis set group =>   2
Atom  27H    basis set group =>   2
Atom  28S    basis set group =>   3
Atom  29H    basis set group =>   2
--------------------------------------------------------------------------
[[16111,1],1]: A high-performance Open MPI point-to-point messaging module
was unable to find any relevant network interfaces:

Module: OpenFabrics (openib)
  Host: compute-1-11

Another transport will be used instead, although this may result in
lower performance.

NOTE: You can disable this warning by setting the MCA parameter
btl_base_warn_component_unused to 0.
--------------------------------------------------------------------------


           ************************************************************
           *        Program running with 4 parallel MPI-processes     *
           *              working on a common directory               *
           ************************************************************
------------------------------------------------------------------------------
                           ORCA GTO INTEGRAL CALCULATION
------------------------------------------------------------------------------

                         BASIS SET STATISTICS AND STARTUP INFO

 # of primitive gaussian shells          ...  488
 # of primitive gaussian functions       ... 1068
 # of contracted shells                  ...  268
 # of contracted basis functions         ...  704
 Highest angular momentum                ...    3
 Maximum contraction depth               ...    7
 Integral package used                   ... LIBINT
 Integral threshhold            Thresh   ...  2.500e-11
 Primitive cut-off              TCut     ...  2.500e-12


------------------------------ INTEGRAL EVALUATION ----------------------------


 * One electron integrals 
 Pre-screening matrix                    ... done
 Shell pair data                         ... done (   0.010 sec)

[compute-1-11.local:35793] 3 more processes have sent help message help-mpi-btl-base.txt / btl:no-nics
[compute-1-11.local:35793] Set MCA parameter "orte_base_help_aggregate" to 0 to see all help / error messages
--------------------------------------------------------------------------
[[16093,1],0]: A high-performance Open MPI point-to-point messaging module
was unable to find any relevant network interfaces:

Module: OpenFabrics (openib)
  Host: compute-1-11

Another transport will be used instead, although this may result in
lower performance.

NOTE: You can disable this warning by setting the MCA parameter
btl_base_warn_component_unused to 0.
--------------------------------------------------------------------------


           ************************************************************
           *        Program running with 4 parallel MPI-processes     *
           *              working on a common directory               *
           ************************************************************
-------------------------------------------------------------------------------
                                 ORCA SCF
-------------------------------------------------------------------------------

------------
SCF SETTINGS
------------
Hamiltonian:
 Density Functional     Method          .... DFT(GTOs)
 Exchange Functional    Exchange        .... WB97X-D3
 Correlation Functional Correlation     .... WB97X-D3
 Gradients option       PostSCFGGA      .... off
 Hybrid DFT is turned on
   Fraction HF Exchange ScalHFX         ....  0.195728
   Scaling of DF-GGA-X  ScalDFX         ....  0.000000
   Scaling of DF-GGA-C  ScalDFC         ....  1.000000
   Scaling of DF-LDA-C  ScalLDAC        ....  1.000000
   Perturbative correction              ....  0.000000
   Density functional embedding theory  .... OFF
 Long-range corrected/Screened/Range-Separated Hybrid DFT is turned on
   Amount of maximum screened exact exchange              ....  0.804272
   Range separation parameter mu (erf(mu*r12)/r12)        ....  0.250000


General Settings:
 Integral files         IntName         .... osc4T
 Hartree-Fock type      HFTyp           .... RHF
 Total Charge           Charge          ....    0
 Multiplicity           Mult            ....    1
 Number of Electrons    NEL             ....  170
 Basis Dimension        Dim             ....  704
 Nuclear Repulsion      ENuc            ....   1795.5717732857 Eh

Convergence Acceleration:
 DIIS                   CNVDIIS         .... on
   Start iteration      DIISMaxIt       ....    12
   Startup error        DIISStart       ....  0.200000
   # of expansion vecs  DIISMaxEq       ....     5
   Bias factor          DIISBfac        ....   1.050
   Max. coefficient     DIISMaxC        ....  10.000
 Newton-Raphson         CNVNR           .... off
 SOSCF                  CNVSOSCF        .... on
   Start iteration      SOSCFMaxIt      ....   150
   Startup grad/error   SOSCFStart      ....  0.003300
 Level Shifting         CNVShift        .... on
   Level shift para.    LevelShift      ....    0.2500
   Turn off err/grad.   ShiftErr        ....    0.0010
 Zerner damping         CNVZerner       .... off
 Static damping         CNVDamp         .... on
   Fraction old density DampFac         ....    0.7000
   Max. Damping (<1)    DampMax         ....    0.9800
   Min. Damping (>=0)   DampMin         ....    0.0000
   Turn off err/grad.   DampErr         ....    0.1000
 Fernandez-Rico         CNVRico         .... off

SCF Procedure:
 Maximum # iterations   MaxIter         ....   125
 SCF integral mode      SCFMode         .... Direct
   Integral package                     .... LIBINT
 Reset frequency        DirectResetFreq ....    20
 Integral Threshold     Thresh          ....  2.500e-11 Eh
 Primitive CutOff       TCut            ....  2.500e-12 Eh

Convergence Tolerance:
 Convergence Check Mode ConvCheckMode   .... Total+1el-Energy
 Convergence forced     ConvForced      .... 0
 Energy Change          TolE            ....  1.000e-08 Eh
 1-El. energy change                    ....  1.000e-05 Eh
 Orbital Gradient       TolG            ....  1.000e-05
 Orbital Rotation angle TolX            ....  1.000e-05
 DIIS Error             TolErr          ....  5.000e-07


Diagonalization of the overlap matrix:
Smallest eigenvalue                        ... 1.211e-05
Time for diagonalization                   ...    0.192 sec
Threshold for overlap eigenvalues          ... 1.000e-08
Number of eigenvalues below threshold      ... 0
Time for construction of square roots      ...    0.100 sec
Total time needed                          ...    0.294 sec

-------------------
DFT GRID GENERATION
-------------------

General Integration Accuracy     IntAcc      ...  4.340
Radial Grid Type                 RadialGrid  ... Gauss-Chebyshev
Angular Grid (max. acc.)         AngularGrid ... Lebedev-110
Angular grid pruning method      GridPruning ... 3 (G Style)
Weight generation scheme         WeightScheme... Becke
Basis function cutoff            BFCut       ...    1.0000e-11
Integration weight cutoff        WCut        ...    1.0000e-14
Grids for H and He will be reduced by one unit

# of grid points (after initial pruning)     ...  41660 (   0.0 sec)
# of grid points (after weights+screening)   ...  38189 (   0.2 sec)
nearest neighbour list constructed           ...    0.0 sec
Grid point re-assignment to atoms done       ...    0.0 sec
Grid point division into batches done        ...    0.0 sec
Reduced shell lists constructed in    0.3 sec

Total number of grid points                  ...    38189
Total number of batches                      ...      611
Average number of points per batch           ...       62
Average number of grid points per atom       ...     1273
Average number of shells per batch           ...    91.20 (34.03%)
Average number of basis functions per batch  ...   242.14 (34.39%)
Average number of large shells per batch     ...    65.47 (71.78%)
Average number of large basis fcns per batch ...   177.19 (73.18%)
Maximum spatial batch extension              ...  16.66, 20.03, 40.17 au
Average spatial batch extension              ...   0.81,  1.00,  1.33 au

Time for grid setup =    0.494 sec

------------------------------
INITIAL GUESS: MODEL POTENTIAL
------------------------------
Loading Hartree-Fock densities                     ... done
Calculating cut-offs                               ... done
Setting up the integral package                    ... done
Initializing the effective Hamiltonian             ... done
Starting the Coulomb interaction                   ... done (   0.6 sec)
Reading the grid                                   ... done
Mapping shells                                     ... done
Starting the XC term evaluation                    ... done (   0.7 sec)
  promolecular density results
     # of electrons  =    169.992426217
     EX              =   -184.500478312
     EC              =     -6.075890259
     EX+EC           =   -190.576368571
Transforming the Hamiltonian                       ... done (   0.1 sec)
Diagonalizing the Hamiltonian                      ... done (   0.2 sec)
Back transforming the eigenvectors                 ... done (   0.0 sec)
Now organizing SCF variables                       ... done
                      ------------------
                      INITIAL GUESS DONE (   2.3 sec)
                      ------------------

--------------------
CPCM SOLVATION MODEL
--------------------
CPCM parameters:
  Epsilon                                         ...       3.0000
  Refrac                                          ...       1.3300
  Rsolv                                           ...       1.3000
  Surface type                                    ...    GEPOL SES
  Epsilon function type                           ...         CPCM
Radii:
 Radius for C  used is    3.7795 Bohr (=   2.0000 Ang.)
 Radius for H  used is    2.4566 Bohr (=   1.3000 Ang.)
 Radius for S  used is    4.0818 Bohr (=   2.1600 Ang.)
Calculating surface                               ...        done! (  0.1s)
GEPOL surface points                              ...          957
GEPOL Volume                                      ...    2413.2274
GEPOL Surface-area                                ...    1189.6720
Calculating surface distance matrix               ...        done! (  0.0s)
Performing Cholesky decomposition & store         ...        done! (  0.0s)
Overall time for CPCM initialization              ...                 0.1s
--------------
SCF ITERATIONS
--------------
ITER       Energy         Delta-E        Max-DP      RMS-DP      [F,P]     Damp
               ***  Starting incremental Fock matrix formation  ***
[compute-1-11.local:35811] 3 more processes have sent help message help-mpi-btl-base.txt / btl:no-nics
[compute-1-11.local:35811] Set MCA parameter "orte_base_help_aggregate" to 0 to see all help / error messages
  0  -2208.0082173839   0.000000000000 0.04007173  0.00064298  0.1431967 0.7000
  1  -2208.2222501919  -0.214032808032 0.03530360  0.00050822  0.0851998 0.7000
                               ***Turning on DIIS***
  2  -2208.3283179762  -0.106067784293 0.08342811  0.00113351  0.0426363 0.0000
  3  -2208.4888433649  -0.160525388641 0.02656640  0.00036942  0.0380220 0.0000
  4  -2208.5221918270  -0.033348462131 0.01412627  0.00019701  0.0078755 0.0000
  5  -2208.5240681654  -0.001876338367 0.00786645  0.00009457  0.0020654 0.0000
                      *** Initiating the SOSCF procedure ***
                           *** Shutting down DIIS ***
                      *** Re-Reading the Fockian *** 
                      *** Removing any level shift *** 
ITER      Energy       Delta-E        Grad      Rot      Max-DP    RMS-DP
  6  -2208.52444002  -0.0003718538  0.002693  0.002693  0.003856  0.000051
               *** Restarting incremental Fock matrix formation ***
  7  -2208.52456891  -0.0001288946  0.001405  0.004222  0.002055  0.000031
  8  -2208.52462743  -0.0000585154  0.000680  0.005228  0.002182  0.000036
  9  -2208.52464212  -0.0000146955  0.000359  0.000913  0.000410  0.000008
 10  -2208.52464911  -0.0000069810  0.000111  0.000352  0.000219  0.000004
 11  -2208.52464940  -0.0000002927  0.000051  0.000079  0.000079  0.000001
 12  -2208.52464955  -0.0000001491  0.000021  0.000045  0.000033  0.000001
 13  -2208.52464955  -0.0000000046  0.000006  0.000017  0.000022  0.000000
                  ***Gradient check signals convergence***
              ***Rediagonalizing the Fockian in SOSCF/NRSCF***

               *****************************************************
               *                     SUCCESS                       *
               *           SCF CONVERGED AFTER  14 CYCLES          *
               *****************************************************

Setting up the final grid:

General Integration Accuracy     IntAcc      ...  4.670
Radial Grid Type                 RadialGrid  ... Gauss-Chebyshev
Angular Grid (max. acc.)         AngularGrid ... Lebedev-302
Angular grid pruning method      GridPruning ... 3 (G Style)
Weight generation scheme         WeightScheme... Becke
Basis function cutoff            BFCut       ...    1.0000e-11
Integration weight cutoff        WCut        ...    1.0000e-14
Grids for H and He will be reduced by one unit

# of grid points (after initial pruning)     ... 160716 (   0.0 sec)
# of grid points (after weights+screening)   ... 145076 (   0.6 sec)
nearest neighbour list constructed           ...    0.0 sec
Grid point re-assignment to atoms done       ...    0.0 sec
Grid point division into batches done        ...    0.8 sec
Reduced shell lists constructed in    1.6 sec

Total number of grid points                  ...   145076
Total number of batches                      ...     2283
Average number of points per batch           ...       63
Average number of grid points per atom       ...     4836
Average number of shells per batch           ...    81.82 (30.53%)
Average number of basis functions per batch  ...   217.19 (30.85%)
Average number of large shells per batch     ...    58.16 (71.09%)
Average number of large basis fcns per batch ...   156.19 (71.91%)
Maximum spatial batch extension              ...  20.79, 15.44, 23.20 au
Average spatial batch extension              ...   0.59,  0.64,  0.75 au

Final grid set up in    2.6 sec
Final integration                            ... done (   3.0 sec)
Change in XC energy                          ...     0.010411721
Integrated number of electrons               ...   169.999995770
Previous integrated no of electrons          ...   170.001595215

----------------
TOTAL SCF ENERGY
----------------

Total Energy       :        -2208.51423784 Eh          -60096.72767 eV

Components:
Nuclear Repulsion  :         1795.57177329 Eh           48859.99195 eV
Electronic Energy  :        -4004.08601112 Eh         -108956.71962 eV
One Electron Energy:        -6604.02309546 Eh         -179704.60443 eV
Two Electron Energy:         2599.93708434 Eh           70747.88482 eV
CPCM Dielectric    :           -0.00839952 Eh              -0.22856 eV

Virial components:
Potential Energy   :        -4411.43680670 Eh         -120041.29829 eV
Kinetic Energy     :         2202.92256886 Eh           59944.57062 eV
Virial Ratio       :            2.00253830


DFT components:
N(Alpha)           :       84.999997885043 electrons
N(Beta)            :       84.999997885043 electrons
N(Total)           :      169.999995770087 electrons
E(XC)              :     -138.560271090191 Eh       
DFET-embed. en.    :        0.000000000000 Eh       
CPCM Solvation Model Properties:
Surface-charge          :           -0.03918963
Charge-correction       :            0.00014728 Eh               0.00401 eV
Free-energy (cav+disp)  :            0.00569609 Eh               0.15500 eV
Corrected G(solv)       :        -2208.50839447 Eh          -60096.56866 eV

---------------
SCF CONVERGENCE
---------------

  Last Energy change         ...   -5.0495e-09  Tolerance :   1.0000e-08
  Last MAX-Density change    ...    9.7711e-06  Tolerance :   1.0000e-07
  Last RMS-Density change    ...    1.6108e-07  Tolerance :   5.0000e-09
  Last Orbital Gradient      ...    2.0590e-06  Tolerance :   1.0000e-05
  Last Orbital Rotation      ...    5.3029e-06  Tolerance :   1.0000e-05

             **** THE GBW FILE WAS UPDATED (osc4T.gbw) ****
             **** DENSITY FILE WAS UPDATED (osc4T.scfp) ****
             **** ENERGY FILE WAS UPDATED (osc4T.en.tmp) ****
             **** THE GBW FILE WAS UPDATED (osc4T.gbw) ****
             **** DENSITY FILE WAS UPDATED (osc4T.scfp) ****
----------------
ORBITAL ENERGIES
----------------

  NO   OCC          E(Eh)            E(eV) 
   0   2.0000     -88.993764     -2421.6434 
   1   2.0000     -88.992889     -2421.6196 
   2   2.0000     -88.986314     -2421.4407 
   3   2.0000     -88.986012     -2421.4325 
   4   2.0000     -10.332990      -281.1750 
   5   2.0000     -10.332721      -281.1676 
   6   2.0000     -10.331790      -281.1423 
   7   2.0000     -10.331414      -281.1321 
   8   2.0000     -10.329490      -281.0797 
   9   2.0000     -10.329222      -281.0724 
  10   2.0000     -10.307233      -280.4741 
  11   2.0000     -10.307132      -280.4713 
  12   2.0000     -10.287228      -279.9297 
  13   2.0000     -10.286529      -279.9107 
  14   2.0000     -10.286441      -279.9083 
  15   2.0000     -10.286145      -279.9002 
  16   2.0000     -10.285886      -279.8932 
  17   2.0000     -10.285786      -279.8905 
  18   2.0000     -10.284668      -279.8600 
  19   2.0000     -10.284434      -279.8537 
  20   2.0000      -8.089545      -220.1277 
  21   2.0000      -8.088888      -220.1098 
  22   2.0000      -8.082879      -219.9463 
  23   2.0000      -8.082636      -219.9397 
  24   2.0000      -6.042235      -164.4176 
  25   2.0000      -6.041549      -164.3989 
  26   2.0000      -6.038231      -164.3086 
  27   2.0000      -6.037553      -164.2902 
  28   2.0000      -6.035615      -164.2374 
  29   2.0000      -6.035319      -164.2294 
  30   2.0000      -6.035053      -164.2221 
  31   2.0000      -6.034964      -164.2197 
  32   2.0000      -6.031288      -164.1197 
  33   2.0000      -6.031067      -164.1137 
  34   2.0000      -6.029347      -164.0669 
  35   2.0000      -6.029085      -164.0598 
  36   2.0000      -1.036357       -28.2007 
  37   2.0000      -1.027369       -27.9561 
  38   2.0000      -1.014945       -27.6180 
  39   2.0000      -1.005641       -27.3649 
  40   2.0000      -0.908182       -24.7129 
  41   2.0000      -0.879563       -23.9341 
  42   2.0000      -0.868647       -23.6371 
  43   2.0000      -0.863150       -23.4875 
  44   2.0000      -0.853768       -23.2322 
  45   2.0000      -0.851883       -23.1809 
  46   2.0000      -0.837753       -22.7964 
  47   2.0000      -0.804694       -21.8968 
  48   2.0000      -0.727972       -19.8091 
  49   2.0000      -0.708061       -19.2673 
  50   2.0000      -0.687049       -18.6956 
  51   2.0000      -0.672488       -18.2993 
  52   2.0000      -0.655547       -17.8383 
  53   2.0000      -0.645534       -17.5659 
  54   2.0000      -0.638366       -17.3708 
  55   2.0000      -0.636236       -17.3129 
  56   2.0000      -0.630870       -17.1668 
  57   2.0000      -0.623418       -16.9641 
  58   2.0000      -0.587764       -15.9939 
  59   2.0000      -0.554175       -15.0799 
  60   2.0000      -0.532219       -14.4824 
  61   2.0000      -0.519527       -14.1370 
  62   2.0000      -0.518072       -14.0975 
  63   2.0000      -0.517525       -14.0826 
  64   2.0000      -0.510989       -13.9047 
  65   2.0000      -0.509800       -13.8724 
  66   2.0000      -0.500261       -13.6128 
  67   2.0000      -0.491764       -13.3816 
  68   2.0000      -0.491183       -13.3658 
  69   2.0000      -0.481942       -13.1143 
  70   2.0000      -0.479169       -13.0389 
  71   2.0000      -0.477433       -12.9916 
  72   2.0000      -0.472721       -12.8634 
  73   2.0000      -0.447949       -12.1893 
  74   2.0000      -0.435610       -11.8536 
  75   2.0000      -0.427621       -11.6362 
  76   2.0000      -0.425743       -11.5850 
  77   2.0000      -0.403490       -10.9795 
  78   2.0000      -0.361781        -9.8445 
  79   2.0000      -0.355809        -9.6820 
  80   2.0000      -0.350899        -9.5485 
  81   2.0000      -0.345240        -9.3945 
  82   2.0000      -0.343631        -9.3507 
  83   2.0000      -0.312652        -8.5077 
  84   2.0000      -0.267634        -7.2827 
  85   0.0000      -0.010611        -0.2888 
  86   0.0000       0.027796         0.7564 
  87   0.0000       0.065705         1.7879 
  88   0.0000       0.099086         2.6963 
  89   0.0000       0.100448         2.7333 
  90   0.0000       0.104916         2.8549 
  91   0.0000       0.110087         2.9956 
  92   0.0000       0.119596         3.2544 
  93   0.0000       0.120529         3.2798 
  94   0.0000       0.123248         3.3538 
  95   0.0000       0.130980         3.5642 
  96   0.0000       0.136488         3.7140 
  97   0.0000       0.140861         3.8330 
  98   0.0000       0.143933         3.9166 
  99   0.0000       0.147703         4.0192 
 100   0.0000       0.149518         4.0686 
 101   0.0000       0.159480         4.3397 
 102   0.0000       0.163479         4.4485 
 103   0.0000       0.165101         4.4926 
 104   0.0000       0.168464         4.5841 
 105   0.0000       0.171938         4.6787 
 106   0.0000       0.177574         4.8320 
 107   0.0000       0.188647         5.1333 
 108   0.0000       0.192088         5.2270 
 109   0.0000       0.202837         5.5195 
 110   0.0000       0.205437         5.5902 
 111   0.0000       0.213033         5.7969 
 112   0.0000       0.214196         5.8286 
 113   0.0000       0.230119         6.2619 
 114   0.0000       0.245591         6.6829 
 115   0.0000       0.249650         6.7933 
 116   0.0000       0.265585         7.2269 
 117   0.0000       0.266650         7.2559 
 118   0.0000       0.274660         7.4739 
 119   0.0000       0.283405         7.7118 
 120   0.0000       0.287074         7.8117 
 121   0.0000       0.288284         7.8446 
 122   0.0000       0.294287         8.0080 
 123   0.0000       0.298462         8.1216 
 124   0.0000       0.299518         8.1503 
 125   0.0000       0.300322         8.1722 
 126   0.0000       0.300879         8.1873 
 127   0.0000       0.305706         8.3187 
 128   0.0000       0.309798         8.4300 
 129   0.0000       0.312755         8.5105 
 130   0.0000       0.318266         8.6604 
 131   0.0000       0.320405         8.7187 
 132   0.0000       0.321344         8.7442 
 133   0.0000       0.322520         8.7762 
 134   0.0000       0.326221         8.8769 
 135   0.0000       0.333090         9.0638 
 136   0.0000       0.334889         9.1128 
 137   0.0000       0.338139         9.2012 
 138   0.0000       0.353201         9.6111 
 139   0.0000       0.357829         9.7370 
 140   0.0000       0.358382         9.7521 
 141   0.0000       0.372370        10.1327 
 142   0.0000       0.388388        10.5686 
 143   0.0000       0.391442        10.6517 
 144   0.0000       0.391770        10.6606 
 145   0.0000       0.397196        10.8083 
 146   0.0000       0.399484        10.8705 
 147   0.0000       0.402458        10.9514 
 148   0.0000       0.407410        11.0862 
 149   0.0000       0.411207        11.1895 
 150   0.0000       0.412028        11.2118 
 151   0.0000       0.412940        11.2367 
 152   0.0000       0.417369        11.3572 
 153   0.0000       0.424772        11.5586 
 154   0.0000       0.428203        11.6520 
 155   0.0000       0.435133        11.8406 
 156   0.0000       0.437093        11.8939 
 157   0.0000       0.440538        11.9876 
 158   0.0000       0.443693        12.0735 
 159   0.0000       0.450792        12.2667 
 160   0.0000       0.457060        12.4372 
 161   0.0000       0.459805        12.5119 
 162   0.0000       0.473090        12.8734 
 163   0.0000       0.477725        12.9996 
 164   0.0000       0.478983        13.0338 
 165   0.0000       0.482272        13.1233 
 166   0.0000       0.484622        13.1872 
 167   0.0000       0.486576        13.2404 
 168   0.0000       0.487542        13.2667 
 169   0.0000       0.493699        13.4342 
 170   0.0000       0.494009        13.4427 
 171   0.0000       0.499320        13.5872 
 172   0.0000       0.501423        13.6444 
 173   0.0000       0.501803        13.6548 
 174   0.0000       0.509326        13.8595 
 175   0.0000       0.511866        13.9286 
 176   0.0000       0.513313        13.9680 
 177   0.0000       0.517250        14.0751 
 178   0.0000       0.517646        14.0859 
 179   0.0000       0.519007        14.1229 
 180   0.0000       0.525661        14.3040 
 181   0.0000       0.533629        14.5208 
 182   0.0000       0.539805        14.6889 
 183   0.0000       0.544495        14.8165 
 184   0.0000       0.564461        15.3598 
 185   0.0000       0.574557        15.6345 
 186   0.0000       0.574920        15.6444 
 187   0.0000       0.585769        15.9396 
 188   0.0000       0.590305        16.0630 
 189   0.0000       0.596263        16.2251 
 190   0.0000       0.604228        16.4419 
 191   0.0000       0.607572        16.5329 
 192   0.0000       0.616439        16.7741 
 193   0.0000       0.630400        17.1541 
 194   0.0000       0.639506        17.4018 
 195   0.0000       0.644041        17.5252 
 196   0.0000       0.646189        17.5837 
 197   0.0000       0.655620        17.8403 
 198   0.0000       0.660978        17.9861 
 199   0.0000       0.662967        18.0403 
 200   0.0000       0.685838        18.6626 
 201   0.0000       0.691022        18.8037 
 202   0.0000       0.696032        18.9400 
 203   0.0000       0.700216        19.0538 
 204   0.0000       0.713702        19.4208 
 205   0.0000       0.721401        19.6303 
 206   0.0000       0.725692        19.7471 
 207   0.0000       0.730404        19.8753 
 208   0.0000       0.732070        19.9206 
 209   0.0000       0.736375        20.0378 
 210   0.0000       0.743947        20.2438 
 211   0.0000       0.747735        20.3469 
 212   0.0000       0.754610        20.5340 
 213   0.0000       0.756868        20.5954 
 214   0.0000       0.758851        20.6494 
 215   0.0000       0.763141        20.7661 
 216   0.0000       0.767686        20.8898 
 217   0.0000       0.769952        20.9515 
 218   0.0000       0.770959        20.9789 
 219   0.0000       0.776625        21.1330 
 220   0.0000       0.785501        21.3746 
 221   0.0000       0.785636        21.3782 
 222   0.0000       0.794368        21.6158 
 223   0.0000       0.803735        21.8707 
 224   0.0000       0.806026        21.9331 
 225   0.0000       0.809698        22.0330 
 226   0.0000       0.815381        22.1877 
 227   0.0000       0.835334        22.7306 
 228   0.0000       0.841851        22.9079 
 229   0.0000       0.845062        22.9953 
 230   0.0000       0.861275        23.4365 
 231   0.0000       0.869011        23.6470 
 232   0.0000       0.870425        23.6855 
 233   0.0000       0.878124        23.8950 
 234   0.0000       0.896100        24.3841 
 235   0.0000       0.902929        24.5699 
 236   0.0000       0.908353        24.7175 
 237   0.0000       0.910851        24.7855 
 238   0.0000       0.922167        25.0934 
 239   0.0000       0.927344        25.2343 
 240   0.0000       0.937861        25.5205 
 241   0.0000       0.950524        25.8651 
 242   0.0000       0.954233        25.9660 
 243   0.0000       0.974954        26.5298 
 244   0.0000       0.981690        26.7131 
 245   0.0000       0.984256        26.7830 
 246   0.0000       0.996710        27.1218 
 247   0.0000       0.999784        27.2055 
 248   0.0000       1.007858        27.4252 
 249   0.0000       1.014417        27.6037 
 250   0.0000       1.026719        27.9384 
 251   0.0000       1.032753        28.1026 
 252   0.0000       1.043028        28.3822 
 253   0.0000       1.046976        28.4897 
 254   0.0000       1.050153        28.5761 
 255   0.0000       1.053604        28.6700 
 256   0.0000       1.055362        28.7179 
 257   0.0000       1.058100        28.7924 
 258   0.0000       1.071877        29.1672 
 259   0.0000       1.088694        29.6249 
 260   0.0000       1.095103        29.7993 
 261   0.0000       1.103623        30.0311 
 262   0.0000       1.113114        30.2894 
 263   0.0000       1.116816        30.3901 
 264   0.0000       1.119722        30.4692 
 265   0.0000       1.126714        30.6594 
 266   0.0000       1.127708        30.6865 
 267   0.0000       1.142144        31.0793 
 268   0.0000       1.144084        31.1321 
 269   0.0000       1.146815        31.2064 
 270   0.0000       1.152748        31.3679 
 271   0.0000       1.163649        31.6645 
 272   0.0000       1.179855        32.1055 
 273   0.0000       1.181611        32.1533 
 274   0.0000       1.187072        32.3019 
 275   0.0000       1.193944        32.4889 
 276   0.0000       1.212928        33.0055 
 277   0.0000       1.219236        33.1771 
 278   0.0000       1.233730        33.5715 
 279   0.0000       1.241244        33.7760 
 280   0.0000       1.244171        33.8556 
 281   0.0000       1.244450        33.8632 
 282   0.0000       1.254348        34.1325 
 283   0.0000       1.260498        34.2999 
 284   0.0000       1.266651        34.4673 
 285   0.0000       1.292646        35.1747 
 286   0.0000       1.317571        35.8529 
 287   0.0000       1.318645        35.8821 
 288   0.0000       1.345006        36.5995 
 289   0.0000       1.353369        36.8270 
 290   0.0000       1.356203        36.9042 
 291   0.0000       1.359295        36.9883 
 292   0.0000       1.361991        37.0617 
 293   0.0000       1.378169        37.5019 
 294   0.0000       1.381486        37.5921 
 295   0.0000       1.384810        37.6826 
 296   0.0000       1.401366        38.1331 
 297   0.0000       1.410921        38.3931 
 298   0.0000       1.430810        38.9343 
 299   0.0000       1.432499        38.9803 
 300   0.0000       1.433997        39.0211 
 301   0.0000       1.436280        39.0832 
 302   0.0000       1.438743        39.1502 
 303   0.0000       1.456746        39.6401 
 304   0.0000       1.461789        39.7773 
 305   0.0000       1.465910        39.8894 
 306   0.0000       1.474534        40.1241 
 307   0.0000       1.478736        40.2384 
 308   0.0000       1.487309        40.4717 
 309   0.0000       1.497400        40.7463 
 310   0.0000       1.511179        41.1213 
 311   0.0000       1.518070        41.3088 
 312   0.0000       1.535724        41.7892 
 313   0.0000       1.537548        41.8388 
 314   0.0000       1.539241        41.8849 
 315   0.0000       1.545957        42.0676 
 316   0.0000       1.551381        42.2152 
 317   0.0000       1.566635        42.6303 
 318   0.0000       1.575890        42.8822 
 319   0.0000       1.582582        43.0642 
 320   0.0000       1.589137        43.2426 
 321   0.0000       1.592289        43.3284 
 322   0.0000       1.593487        43.3610 
 323   0.0000       1.596202        43.4349 
 324   0.0000       1.599155        43.5152 
 325   0.0000       1.610103        43.8131 
 326   0.0000       1.613780        43.9132 
 327   0.0000       1.616472        43.9864 
 328   0.0000       1.617631        44.0180 
 329   0.0000       1.631520        44.3959 
 330   0.0000       1.636957        44.5439 
 331   0.0000       1.641695        44.6728 
 332   0.0000       1.645143        44.7666 
 333   0.0000       1.647431        44.8289 
 334   0.0000       1.653312        44.9889 
 335   0.0000       1.661550        45.2131 
 336   0.0000       1.664788        45.3012 
 337   0.0000       1.668990        45.4155 
 338   0.0000       1.673906        45.5493 
 339   0.0000       1.680868        45.7387 
 340   0.0000       1.686451        45.8907 
 341   0.0000       1.692663        46.0597 
 342   0.0000       1.693739        46.0890 
 343   0.0000       1.698959        46.2310 
 344   0.0000       1.706180        46.4275 
 345   0.0000       1.718938        46.7747 
 346   0.0000       1.735281        47.2194 
 347   0.0000       1.745441        47.4959 
 348   0.0000       1.747453        47.5506 
 349   0.0000       1.757721        47.8300 
 350   0.0000       1.762548        47.9614 
 351   0.0000       1.766016        48.0557 
 352   0.0000       1.784774        48.5662 
 353   0.0000       1.790090        48.7108 
 354   0.0000       1.802140        49.0387 
 355   0.0000       1.813464        49.3469 
 356   0.0000       1.829955        49.7956 
 357   0.0000       1.844976        50.2043 
 358   0.0000       1.854264        50.4571 
 359   0.0000       1.860189        50.6183 
 360   0.0000       1.861771        50.6614 
 361   0.0000       1.863547        50.7097 
 362   0.0000       1.875149        51.0254 
 363   0.0000       1.883140        51.2429 
 364   0.0000       1.890725        51.4493 
 365   0.0000       1.892539        51.4986 
 366   0.0000       1.896697        51.6118 
 367   0.0000       1.897107        51.6229 
 368   0.0000       1.904574        51.8261 
 369   0.0000       1.916607        52.1535 
 370   0.0000       1.919534        52.2332 
 371   0.0000       1.925562        52.3972 
 372   0.0000       1.929923        52.5159 
 373   0.0000       1.932668        52.5906 
 374   0.0000       1.946214        52.9592 
 375   0.0000       1.949168        53.0396 
 376   0.0000       1.979115        53.8544 
 377   0.0000       1.980350        53.8881 
 378   0.0000       1.994359        54.2693 
 379   0.0000       1.998472        54.3812 
 380   0.0000       1.999408        54.4067 
 381   0.0000       2.006890        54.6103 
 382   0.0000       2.008043        54.6416 
 383   0.0000       2.008897        54.6649 
 384   0.0000       2.015895        54.8553 
 385   0.0000       2.050934        55.8088 
 386   0.0000       2.051237        55.8170 
 387   0.0000       2.053149        55.8690 
 388   0.0000       2.068855        56.2964 
 389   0.0000       2.074068        56.4383 
 390   0.0000       2.074965        56.4627 
 391   0.0000       2.076472        56.5037 
 392   0.0000       2.081517        56.6410 
 393   0.0000       2.085048        56.7370 
 394   0.0000       2.086885        56.7870 
 395   0.0000       2.092053        56.9277 
 396   0.0000       2.098454        57.1018 
 397   0.0000       2.102720        57.2179 
 398   0.0000       2.123275        57.7773 
 399   0.0000       2.127032        57.8795 
 400   0.0000       2.151584        58.5476 
 401   0.0000       2.166693        58.9587 
 402   0.0000       2.185427        59.4685 
 403   0.0000       2.199663        59.8559 
 404   0.0000       2.213305        60.2271 
 405   0.0000       2.222671        60.4819 
 406   0.0000       2.226948        60.5983 
 407   0.0000       2.233827        60.7855 
 408   0.0000       2.266757        61.6816 
 409   0.0000       2.275663        61.9239 
 410   0.0000       2.282595        62.1126 
 411   0.0000       2.289903        62.3114 
 412   0.0000       2.293396        62.4065 
 413   0.0000       2.303999        62.6950 
 414   0.0000       2.308133        62.8075 
 415   0.0000       2.309931        62.8564 
 416   0.0000       2.311448        62.8977 
 417   0.0000       2.328240        63.3546 
 418   0.0000       2.344751        63.8039 
 419   0.0000       2.353956        64.0544 
 420   0.0000       2.358388        64.1750 
 421   0.0000       2.364607        64.3442 
 422   0.0000       2.397245        65.2324 
 423   0.0000       2.400458        65.3198 
 424   0.0000       2.410981        65.6061 
 425   0.0000       2.417199        65.7753 
 426   0.0000       2.419611        65.8410 
 427   0.0000       2.421042        65.8799 
 428   0.0000       2.446150        66.5631 
 429   0.0000       2.446798        66.5808 
 430   0.0000       2.535068        68.9827 
 431   0.0000       2.539416        69.1010 
 432   0.0000       2.554149        69.5019 
 433   0.0000       2.563449        69.7550 
 434   0.0000       2.572198        69.9931 
 435   0.0000       2.584142        70.3181 
 436   0.0000       2.586217        70.3745 
 437   0.0000       2.598063        70.6969 
 438   0.0000       2.598603        70.7116 
 439   0.0000       2.601587        70.7928 
 440   0.0000       2.612872        71.0999 
 441   0.0000       2.614384        71.1410 
 442   0.0000       2.617259        71.2192 
 443   0.0000       2.625063        71.4316 
 444   0.0000       2.636908        71.7539 
 445   0.0000       2.641466        71.8779 
 446   0.0000       2.653131        72.1954 
 447   0.0000       2.665879        72.5423 
 448   0.0000       2.668622        72.6169 
 449   0.0000       2.682925        73.0061 
 450   0.0000       2.712220        73.8033 
 451   0.0000       2.720876        74.0388 
 452   0.0000       2.728364        74.2426 
 453   0.0000       2.731674        74.3326 
 454   0.0000       2.744276        74.6755 
 455   0.0000       2.744545        74.6829 
 456   0.0000       2.757189        75.0269 
 457   0.0000       2.761120        75.1339 
 458   0.0000       2.763575        75.2007 
 459   0.0000       2.771860        75.4261 
 460   0.0000       2.776829        75.5614 
 461   0.0000       2.778683        75.6118 
 462   0.0000       2.779725        75.6402 
 463   0.0000       2.791245        75.9536 
 464   0.0000       2.800827        76.2144 
 465   0.0000       2.808991        76.4365 
 466   0.0000       2.815368        76.6101 
 467   0.0000       2.827987        76.9534 
 468   0.0000       2.831460        77.0479 
 469   0.0000       2.840807        77.3023 
 470   0.0000       2.844756        77.4097 
 471   0.0000       2.847123        77.4742 
 472   0.0000       2.848585        77.5139 
 473   0.0000       2.858467        77.7828 
 474   0.0000       2.860817        77.8468 
 475   0.0000       2.871087        78.1263 
 476   0.0000       2.903019        78.9952 
 477   0.0000       2.905390        79.0597 
 478   0.0000       2.917340        79.3848 
 479   0.0000       2.928848        79.6980 
 480   0.0000       2.939009        79.9745 
 481   0.0000       2.944481        80.1234 
 482   0.0000       2.946257        80.1717 
 483   0.0000       2.946470        80.1775 
 484   0.0000       2.958719        80.5108 
 485   0.0000       2.977082        81.0105 
 486   0.0000       2.978288        81.0433 
 487   0.0000       2.981055        81.1186 
 488   0.0000       2.987134        81.2841 
 489   0.0000       3.003658        81.7337 
 490   0.0000       3.020859        82.2018 
 491   0.0000       3.027338        82.3781 
 492   0.0000       3.032978        82.5315 
 493   0.0000       3.036129        82.6173 
 494   0.0000       3.066922        83.4552 
 495   0.0000       3.071407        83.5772 
 496   0.0000       3.081664        83.8563 
 497   0.0000       3.099332        84.3371 
 498   0.0000       3.104521        84.4783 
 499   0.0000       3.106487        84.5318 
 500   0.0000       3.116290        84.7986 
 501   0.0000       3.122577        84.9696 
 502   0.0000       3.132647        85.2437 
 503   0.0000       3.145938        85.6053 
 504   0.0000       3.146538        85.6217 
 505   0.0000       3.148445        85.6735 
 506   0.0000       3.163104        86.0724 
 507   0.0000       3.169730        86.2527 
 508   0.0000       3.170822        86.2824 
 509   0.0000       3.172248        86.3213 
 510   0.0000       3.187979        86.7493 
 511   0.0000       3.188184        86.7549 
 512   0.0000       3.201285        87.1114 
 513   0.0000       3.202409        87.1420 
 514   0.0000       3.205289        87.2203 
 515   0.0000       3.210319        87.3572 
 516   0.0000       3.221398        87.6587 
 517   0.0000       3.222193        87.6803 
 518   0.0000       3.222703        87.6942 
 519   0.0000       3.223390        87.7129 
 520   0.0000       3.236946        88.0818 
 521   0.0000       3.243908        88.2712 
 522   0.0000       3.248226        88.3887 
 523   0.0000       3.260920        88.7341 
 524   0.0000       3.269239        88.9605 
 525   0.0000       3.270475        88.9942 
 526   0.0000       3.276272        89.1519 
 527   0.0000       3.276630        89.1616 
 528   0.0000       3.278680        89.2174 
 529   0.0000       3.300581        89.8134 
 530   0.0000       3.304853        89.9296 
 531   0.0000       3.330552        90.6289 
 532   0.0000       3.348341        91.1130 
 533   0.0000       3.357996        91.3757 
 534   0.0000       3.358485        91.3890 
 535   0.0000       3.367672        91.6390 
 536   0.0000       3.371628        91.7467 
 537   0.0000       3.380226        91.9806 
 538   0.0000       3.386370        92.1478 
 539   0.0000       3.394485        92.3686 
 540   0.0000       3.400263        92.5259 
 541   0.0000       3.401991        92.5729 
 542   0.0000       3.402087        92.5755 
 543   0.0000       3.406712        92.7013 
 544   0.0000       3.419203        93.0412 
 545   0.0000       3.435405        93.4821 
[...]
      pz      :     0.921557  p :     2.969887
      px      :     1.026208
      py      :     1.022122
      dz2     :     0.027055  d :     0.394786
      dxz     :     0.065078
      dyz     :     0.035476
      dx2y2   :     0.117447
      dxy     :     0.149729
      f0      :     0.003289  f :     0.047752
      f+1     :     0.003763
      f-1     :     0.004016
      f+2     :     0.008442
      f-2     :     0.002484
      f+3     :     0.008516
      f-3     :     0.017243
  4 H s       :     0.789298  s :     0.789298
      pz      :     0.014235  p :     0.060961
      px      :     0.018603
      py      :     0.028123
  5 H s       :     0.789629  s :     0.789629
      pz      :     0.013781  p :     0.060374
      px      :     0.018677
      py      :     0.027916
  6 S s       :     5.155165  s :     5.155165
      pz      :     3.494064  p :     9.724788
      px      :     2.907319
      py      :     3.323405
      dz2     :     0.031725  d :     0.319948
      dxz     :     0.079854
      dyz     :     0.025770
      dx2y2   :     0.066667
      dxy     :     0.115932
      f0      :     0.003308  f :     0.057623
      f+1     :     0.003924
      f-1     :     0.003119
      f+2     :     0.000193
      f-2     :     0.014172
      f+3     :     0.017663
      f-3     :     0.015244
  7 H s       :     0.796598  s :     0.796598
      pz      :     0.015280  p :     0.065374
      px      :     0.038021
      py      :     0.012074
  8 C s       :     2.762192  s :     2.762192
      pz      :     0.935697  p :     2.995241
      px      :     0.996862
      py      :     1.062681
      dz2     :     0.037003  d :     0.561823
      dxz     :     0.086430
      dyz     :     0.096223
      dx2y2   :     0.145420
      dxy     :     0.196747
      f0      :     0.004227  f :     0.056555
      f+1     :     0.004453
      f-1     :     0.004197
      f+2     :     0.005584
      f-2     :     0.008623
      f+3     :     0.013255
      f-3     :     0.016218
  9 C s       :     2.761560  s :     2.761560
      pz      :     0.917881  p :     2.964296
      px      :     1.024339
      py      :     1.022076
      dz2     :     0.026825  d :     0.396392
      dxz     :     0.067771
      dyz     :     0.035328
      dx2y2   :     0.117632
      dxy     :     0.148836
      f0      :     0.003345  f :     0.047935
      f+1     :     0.003799
      f-1     :     0.004026
      f+2     :     0.008526
      f-2     :     0.002497
      f+3     :     0.008595
      f-3     :     0.017148
 10 C s       :     2.761638  s :     2.761638
      pz      :     0.917089  p :     2.963556
      px      :     1.024859
      py      :     1.021608
      dz2     :     0.026828  d :     0.396595
      dxz     :     0.068402
      dyz     :     0.035075
      dx2y2   :     0.117946
      dxy     :     0.148343
      f0      :     0.003348  f :     0.047952
      f+1     :     0.003800
      f-1     :     0.004022
      f+2     :     0.008454
      f-2     :     0.002603
      f+3     :     0.008531
      f-3     :     0.017195
 11 C s       :     2.761317  s :     2.761317
      pz      :     0.938006  p :     2.996923
      px      :     0.996486
      py      :     1.062431
      dz2     :     0.037049  d :     0.562197
      dxz     :     0.086523
      dyz     :     0.096383
      dx2y2   :     0.146052
      dxy     :     0.196189
      f0      :     0.004233  f :     0.056641
      f+1     :     0.004477
      f-1     :     0.004197
      f+2     :     0.005565
      f-2     :     0.008653
      f+3     :     0.013114
      f-3     :     0.016402
 12 H s       :     0.787496  s :     0.787496
      pz      :     0.014121  p :     0.060886
      px      :     0.018301
      py      :     0.028465
 13 H s       :     0.787527  s :     0.787527
      pz      :     0.014113  p :     0.060874
      px      :     0.018462
      py      :     0.028299
 14 S s       :     5.149707  s :     5.149707
      pz      :     3.513970  p :     9.708236
      px      :     2.884326
      py      :     3.309940
      dz2     :     0.031026  d :     0.304296
      dxz     :     0.072553
      dyz     :     0.025080
      dx2y2   :     0.061317
      dxy     :     0.114321
      f0      :     0.003312  f :     0.055668
      f+1     :     0.003816
      f-1     :     0.003102
      f+2     :     0.000255
      f-2     :     0.013573
      f+3     :     0.016989
      f-3     :     0.014621
 15 C s       :     2.761316  s :     2.761316
      pz      :     0.938003  p :     2.996918
      px      :     0.996485
      py      :     1.062430
      dz2     :     0.037050  d :     0.562199
      dxz     :     0.086525
      dyz     :     0.096383
      dx2y2   :     0.146052
      dxy     :     0.196188
      f0      :     0.004233  f :     0.056641
      f+1     :     0.004477
      f-1     :     0.004197
      f+2     :     0.005564
      f-2     :     0.008654
      f+3     :     0.013113
      f-3     :     0.016403
 16 C s       :     2.761639  s :     2.761639
      pz      :     0.917093  p :     2.963555
      px      :     1.024853
      py      :     1.021609
      dz2     :     0.026828  d :     0.396590
      dxz     :     0.068404
      dyz     :     0.035072
      dx2y2   :     0.117951
      dxy     :     0.148335
      f0      :     0.003348  f :     0.047952
      f+1     :     0.003800
      f-1     :     0.004022
      f+2     :     0.008454
      f-2     :     0.002603
      f+3     :     0.008530
      f-3     :     0.017195
 17 C s       :     2.761553  s :     2.761553
      pz      :     0.917883  p :     2.964296
      px      :     1.024330
      py      :     1.022083
      dz2     :     0.026825  d :     0.396394
      dxz     :     0.067768
      dyz     :     0.035332
      dx2y2   :     0.117630
      dxy     :     0.148839
      f0      :     0.003345  f :     0.047935
      f+1     :     0.003799
      f-1     :     0.004026
      f+2     :     0.008526
      f-2     :     0.002496
      f+3     :     0.008596
      f-3     :     0.017147
 18 C s       :     2.762188  s :     2.762188
      pz      :     0.935694  p :     2.995241
      px      :     0.996860
      py      :     1.062687
      dz2     :     0.037005  d :     0.561830
      dxz     :     0.086431
      dyz     :     0.096227
      dx2y2   :     0.145415
      dxy     :     0.196754
      f0      :     0.004227  f :     0.056557
      f+1     :     0.004453
      f-1     :     0.004197
      f+2     :     0.005583
      f-2     :     0.008624
      f+3     :     0.013257
      f-3     :     0.016216
 19 H s       :     0.787531  s :     0.787531
      pz      :     0.014115  p :     0.060880
      px      :     0.018466
      py      :     0.028299
 20 H s       :     0.787495  s :     0.787495
      pz      :     0.014121  p :     0.060886
      px      :     0.018299
      py      :     0.028466
 21 S s       :     5.149691  s :     5.149691
      pz      :     3.513968  p :     9.708233
      px      :     2.884321
      py      :     3.309944
      dz2     :     0.031027  d :     0.304307
      dxz     :     0.072554
      dyz     :     0.025081
      dx2y2   :     0.061322
      dxy     :     0.114324
      f0      :     0.003312  f :     0.055670
      f+1     :     0.003816
      f-1     :     0.003102
      f+2     :     0.000255
      f-2     :     0.013573
      f+3     :     0.016990
      f-3     :     0.014621
 22 C s       :     2.763296  s :     2.763296
      pz      :     0.941823  p :     3.003052
      px      :     0.997012
      py      :     1.064217
      dz2     :     0.037134  d :     0.560537
      dxz     :     0.084414
      dyz     :     0.096263
      dx2y2   :     0.146906
      dxy     :     0.195820
      f0      :     0.004161  f :     0.056579
      f+1     :     0.004467
      f-1     :     0.004180
      f+2     :     0.005628
      f-2     :     0.008568
      f+3     :     0.013380
      f-3     :     0.016195
 23 C s       :     2.764407  s :     2.764407
      pz      :     0.921557  p :     2.969890
      px      :     1.026210
      py      :     1.022123
      dz2     :     0.027055  d :     0.394778
      dxz     :     0.065068
      dyz     :     0.035482
      dx2y2   :     0.117437
      dxy     :     0.149737
      f0      :     0.003289  f :     0.047752
      f+1     :     0.003763
      f-1     :     0.004016
      f+2     :     0.008443
      f-2     :     0.002482
      f+3     :     0.008517
      f-3     :     0.017242
 24 C s       :     2.773296  s :     2.773296
      pz      :     0.915920  p :     2.983815
      px      :     1.024969
      py      :     1.042927
      dz2     :     0.026724  d :     0.403899
      dxz     :     0.068710
      dyz     :     0.037114
      dx2y2   :     0.120247
      dxy     :     0.151105
      f0      :     0.003319  f :     0.048664
      f+1     :     0.003818
      f-1     :     0.004037
      f+2     :     0.008692
      f-2     :     0.002485
      f+3     :     0.008826
      f-3     :     0.017487
 25 C s       :     2.845670  s :     2.845670
      pz      :     0.994619  p :     3.105835
      px      :     1.015289
      py      :     1.095927
      dz2     :     0.028632  d :     0.408083
      dxz     :     0.024812
      dyz     :     0.089888
      dx2y2   :     0.118675
      dxy     :     0.146076
      f0      :     0.003064  f :     0.043189
      f+1     :     0.003494
      f-1     :     0.004148
      f+2     :     0.002035
      f-2     :     0.008066
      f+3     :     0.009299
      f-3     :     0.013083
 26 H s       :     0.789627  s :     0.789627
      pz      :     0.013780  p :     0.060374
      px      :     0.018673
      py      :     0.027920
 27 H s       :     0.789298  s :     0.789298
      pz      :     0.014234  p :     0.060960
      px      :     0.018605
      py      :     0.028120
 28 S s       :     5.155176  s :     5.155176
      pz      :     3.494065  p :     9.724787
      px      :     2.907321
      py      :     3.323402
      dz2     :     0.031725  d :     0.319941
      dxz     :     0.079852
      dyz     :     0.025769
      dx2y2   :     0.066664
      dxy     :     0.115930
      f0      :     0.003308  f :     0.057622
      f+1     :     0.003924
      f-1     :     0.003119
      f+2     :     0.000193
      f-2     :     0.014172
      f+3     :     0.017662
      f-3     :     0.015245
 29 H s       :     0.796597  s :     0.796597
      pz      :     0.015280  p :     0.065375
      px      :     0.038023
      py      :     0.012072


                      *****************************
                      * MAYER POPULATION ANALYSIS *
                      *****************************

  NA   - Mulliken gross atomic population
  ZA   - Total nuclear charge
  QA   - Mulliken gross atomic charge
  VA   - Mayer's total valence
  BVA  - Mayer's bonded valence
  FA   - Mayer's free valence

  ATOM       NA         ZA         QA         VA         BVA        FA
  0 C      6.2439     6.0000    -0.2439     4.0083     4.0083    -0.0000
  1 C      6.1786     6.0000    -0.1786     4.0120     4.0120    -0.0000
  2 C      6.0222     6.0000    -0.0222     3.6583     3.6583    -0.0000
  3 C      6.2597     6.0000    -0.2597     3.8760     3.8760    -0.0000
  4 H      0.8275     1.0000     0.1725     0.9691     0.9691    -0.0000
  5 H      0.8380     1.0000     0.1620     0.9730     0.9730    -0.0000
  6 S     15.9379    16.0000     0.0621     2.7695     2.7695    -0.0000
  7 H      0.8059     1.0000     0.1941     0.9658     0.9658    -0.0000
  8 C      5.8885     6.0000     0.1115     3.6056     3.6056    -0.0000
  9 C      6.1767     6.0000    -0.1767     3.8935     3.8935    -0.0000
 10 C      6.2257     6.0000    -0.2257     3.9245     3.9245    -0.0000
 11 C      5.9523     6.0000     0.0477     3.6473     3.6473    -0.0000
 12 H      0.8275     1.0000     0.1725     0.9683     0.9683    -0.0000
 13 H      0.8283     1.0000     0.1717     0.9688     0.9688    -0.0000
 14 S     15.9874    16.0000     0.0126     2.7612     2.7612    -0.0000
 15 C      5.9523     6.0000     0.0477     3.6473     3.6473    -0.0000
 16 C      6.2256     6.0000    -0.2256     3.9245     3.9245    -0.0000
 17 C      6.1767     6.0000    -0.1767     3.8935     3.8935    -0.0000
 18 C      5.8885     6.0000     0.1115     3.6056     3.6056    -0.0000
 19 H      0.8284     1.0000     0.1716     0.9688     0.9688    -0.0000
 20 H      0.8275     1.0000     0.1725     0.9682     0.9682    -0.0000
 21 S     15.9874    16.0000     0.0126     2.7612     2.7612    -0.0000
 22 C      6.0222     6.0000    -0.0222     3.6582     3.6582    -0.0000
 23 C      6.2596     6.0000    -0.2596     3.8759     3.8759    -0.0000
 24 C      6.1787     6.0000    -0.1787     4.0120     4.0120    -0.0000
 25 C      6.2439     6.0000    -0.2439     4.0083     4.0083    -0.0000
 26 H      0.8380     1.0000     0.1620     0.9730     0.9730    -0.0000
 27 H      0.8274     1.0000     0.1726     0.9691     0.9691    -0.0000
 28 S     15.9379    16.0000     0.0621     2.7695     2.7695    -0.0000
 29 H      0.8059     1.0000     0.1941     0.9658     0.9658    -0.0000

  Mayer bond orders larger than 0.100000
B(  0-C ,  1-C ) :   1.6830 B(  0-C ,  6-S ) :   1.2974 B(  0-C ,  7-H ) :   0.9339 
B(  1-C ,  3-C ) :   1.2975 B(  1-C ,  5-H ) :   0.9655 B(  2-C ,  3-C ) :   1.5089 
B(  2-C ,  6-S ) :   1.3254 B(  2-C ,  8-C ) :   0.9172 B(  3-C ,  4-H ) :   0.9390 
B(  6-S ,  8-C ) :  -0.1179 B(  8-C ,  9-C ) :   1.5029 B(  8-C , 14-S ) :   1.2967 
B(  9-C , 10-C ) :   1.3265 B(  9-C , 13-H ) :   0.9514 B( 10-C , 11-C ) :   1.4890 
B( 10-C , 12-H ) :   0.9477 B( 11-C , 14-S ) :   1.3167 B( 11-C , 15-C ) :   0.9374 
B( 15-C , 16-C ) :   1.4890 B( 15-C , 21-S ) :   1.3167 B( 16-C , 17-C ) :   1.3265 
B( 16-C , 20-H ) :   0.9477 B( 17-C , 18-C ) :   1.5029 B( 17-C , 19-H ) :   0.9514 
B( 18-C , 21-S ) :   1.2967 B( 18-C , 22-C ) :   0.9172 B( 18-C , 28-S ) :  -0.1179 
B( 22-C , 23-C ) :   1.5089 B( 22-C , 28-S ) :   1.3254 B( 23-C , 24-C ) :   1.2975 
B( 23-C , 27-H ) :   0.9390 B( 24-C , 25-C ) :   1.6830 B( 24-C , 26-H ) :   0.9655 
B( 25-C , 28-S ) :   1.2974 B( 25-C , 29-H ) :   0.9339 

-------
TIMINGS
-------

Total SCF time: 0 days 0 hours 18 min 58 sec 

Total time                  ....    1138.623 sec
Sum of individual times     ....    1136.812 sec  ( 99.8%)

Fock matrix formation       ....    1130.999 sec  ( 99.3%)
  XC integration            ....       7.651 sec  (  0.7% of F)
    Basis function eval.    ....       1.482 sec  ( 19.4% of XC)
    Density eval.           ....       1.889 sec  ( 24.7% of XC)
    XC-Functional eval.     ....       0.493 sec  (  6.4% of XC)
    XC-Potential eval.      ....       2.954 sec  ( 38.6% of XC)
Diagonalization             ....       0.470 sec  (  0.0%)
Density matrix formation    ....       0.057 sec  (  0.0%)
Population analysis         ....       0.285 sec  (  0.0%)
Initial guess               ....       0.458 sec  (  0.0%)
Orbital Transformation      ....       0.000 sec  (  0.0%)
Orbital Orthonormalization  ....       0.412 sec  (  0.0%)
DIIS solution               ....       0.111 sec  (  0.0%)
SOSCF solution              ....       1.469 sec  (  0.1%)
Grid generation             ....       2.962 sec  (  0.3%)


-------------------------------------------------------------------------------
                          DFT DISPERSION CORRECTION                            
                                                                               
                              DFTD3 V3.1  Rev 1                                
                              USING zero damping                               
-------------------------------------------------------------------------------
The omegaB97X-D3 functional is recognized. Fit by Chai et al.
Active option DFTDOPT                   ...         3   

molecular C6(AA) [au] = 19857.079085 


            DFT-D V3
 parameters
 s6 scaling factor         :     1.0000 
 rs6 scaling factor        :     1.2810 
 s8 scaling factor         :     1.0000 
 rs8 scaling factor        :     1.0940 
 Damping factor alpha6     :    14.0000 
 Damping factor alpha8     :    16.0000 
 ad hoc parameters k1-k3   :    16.0000     1.3333    -4.0000 

 Edisp/kcal,au: -7.315655741034  -0.011658238263 
 E6   /kcal   :  -2.946281415 
 E8   /kcal   :  -4.369374326 
 % E8         :  59.726352365 

-------------------------   ----------------
Dispersion correction           -0.011658238
-------------------------   ----------------


-------------------------   --------------------
FINAL SINGLE POINT ENERGY     -2208.549307552425
-------------------------   --------------------

                                *** OPTIMIZATION RUN DONE ***

                            ***************************************
                            *     ORCA property calculations      *
                            ***************************************

                                    ---------------------
                                    Active property flags
                                    ---------------------
   (+) Dipole Moment


------------------------------------------------------------------------------
                       ORCA ELECTRIC PROPERTIES CALCULATION
------------------------------------------------------------------------------

Dipole Moment Calculation                       ... on
Quadrupole Moment Calculation                   ... off
Polarizability Calculation                      ... off
GBWName                                         ... osc4T.gbw
Electron density file                           ... osc4T.scfp
The origin for moment calculation is the CENTER OF MASS  = ( 1.478511,  6.574500  0.001230)

-------------
DIPOLE MOMENT
-------------
                                X             Y             Z
Electronic contribution:      0.00035      -0.00059       0.01387
Nuclear contribution   :     -0.00037       0.00060      -0.01574
                        -----------------------------------------
Total Dipole Moment    :     -0.00002       0.00001      -0.00187
                        -----------------------------------------
Magnitude (a.u.)       :      0.00187
Magnitude (Debye)      :      0.00476



--------------------
Rotational spectrum 
--------------------
 
Rotational constants in cm-1:     0.044865     0.002570     0.002430 
Rotational constants in MHz :  1345.004998    77.032265    72.859477 

 Dipole components along the rotational axes: 
x,y,z [a.u.] :     0.000015     0.000006    -0.001873 
x,y,z [Debye]:     0.000039     0.000015    -0.004761 

 
--------------------------------------------------------------------------
[[22184,1],1]: A high-performance Open MPI point-to-point messaging module
was unable to find any relevant network interfaces:

Module: OpenFabrics (openib)
  Host: compute-1-11

Another transport will be used instead, although this may result in
lower performance.

NOTE: You can disable this warning by setting the MCA parameter
btl_base_warn_component_unused to 0.
--------------------------------------------------------------------------
[compute-1-11.local:58262] 3 more processes have sent help message help-mpi-btl-base.txt / btl:no-nics
[compute-1-11.local:58262] Set MCA parameter "orte_base_help_aggregate" to 0 to see all help / error messages

Timings for individual modules:

Sum of individual times         ...    26054.075 sec (= 434.235 min)
GTO integral calculation        ...       14.771 sec (=   0.246 min)   0.1 %
SCF iterations                  ...    15617.354 sec (= 260.289 min)  59.9 %
SCF Gradient evaluation         ...    10419.888 sec (= 173.665 min)  40.0 %
Geometry relaxation             ...        2.062 sec (=   0.034 min)   0.0 %
                             ****ORCA TERMINATED NORMALLY****
TOTAL RUN TIME: 0 days 7 hours 14 minutes 16 seconds 921 msec
