Warning: no access to tty (Bad file descriptor).
Thus no job control in this shell.

                                 *****************
                                 * O   R   C   A *
                                 *****************

           --- An Ab Initio, DFT and Semiempirical electronic structure package ---

                  #######################################################
                  #                        -***-                        #
                  #          Department of theory and spectroscopy      #
                  #               Directorship: Frank Neese             #
                  #        Max Planck Institute fuer Kohlenforschung    #
                  #                Kaiser Wilhelm Platz 1               #
                  #                 D-45470 Muelheim/Ruhr               #
                  #                      Germany                        #
                  #                                                     #
                  #                  All rights reserved                #
                  #                        -***-                        #
                  #######################################################


                         Program Version 4.2.1 -  RELEASE  -


 With contributions from (in alphabetic order):
   Daniel Aravena         : Magnetic Suceptibility
   Michael Atanasov       : Ab Initio Ligand Field Theory (pilot matlab implementation)
   Alexander A. Auer      : GIAO ZORA, VPT2
   Ute Becker             : Parallelization
   Giovanni Bistoni       : ED, misc. LED, open-shell LED, HFLD
   Martin Brehm           : Molecular dynamics
   Dmytro Bykov           : SCF Hessian
   Vijay G. Chilkuri      : MRCI spin determinant printing, contributions to CSF-ICE
   Dipayan Datta          : RHF DLPNO-CCSD density
   Achintya Kumar Dutta   : EOM-CC, STEOM-CC
   Dmitry Ganyushin       : Spin-Orbit,Spin-Spin,Magnetic field MRCI
   Miquel Garcia          : C-PCM Hessian, Gaussian charge scheme
   Yang Guo               : DLPNO-NEVPT2, CIM, IAO-localization
   Andreas Hansen         : Spin unrestricted coupled pair/coupled cluster methods
   Benjamin Helmich-Paris : CASSCF linear response (MC-RPA)
   Lee Huntington         : MR-EOM, pCC
   Robert Izsak           : Overlap fitted RIJCOSX, COSX-SCS-MP3, EOM
   Christian Kollmar      : KDIIS, OOCD, Brueckner-CCSD(T), CCSD density
   Simone Kossmann        : Meta GGA functionals, TD-DFT gradient, OOMP2, MP2 Hessian
   Martin Krupicka        : AUTO-CI
   Lucas Lang             : DCDCAS
   Dagmar Lenk            : GEPOL surface, SMD
   Dimitrios Liakos       : Extrapolation schemes; Compound Job, initial MDCI parallelization
   Dimitrios Manganas     : Further ROCIS development; embedding schemes
   Dimitrios Pantazis     : SARC Basis sets
   Taras Petrenko         : DFT Hessian,TD-DFT gradient, ASA, ECA, R-Raman, ABS, FL, XAS/XES, NRVS
   Peter Pinski           : DLPNO-MP2, DLPNO-MP2 Gradient
   Christoph Reimann      : Effective Core Potentials
   Marius Retegan         : Local ZFS, SOC
   Christoph Riplinger    : Optimizer, TS searches, QM/MM, DLPNO-CCSD(T), (RO)-DLPNO pert. Triples
   Tobias Risthaus        : Range-separated hybrids, TD-DFT gradient, RPA, STAB
   Michael Roemelt        : Original ROCIS implementation
   Masaaki Saitow         : Open-shell DLPNO-CCSD energy and density
   Barbara Sandhoefer     : DKH picture change effects
   Avijit Sen             : IP-ROCIS
   Kantharuban Sivalingam : CASSCF convergence, NEVPT2, FIC-MRCI
   Bernardo de Souza      : ESD, SOC TD-DFT
   Georgi Stoychev        : AutoAux, RI-MP2 NMR
   Willem Van den Heuvel  : Paramagnetic NMR
   Boris Wezisla          : Elementary symmetry handling
   Frank Wennmohs         : Technical directorship


 We gratefully acknowledge several colleagues who have allowed us to
 interface, adapt or use parts of their codes:
   Stefan Grimme, W. Hujo, H. Kruse,             : VdW corrections, initial TS optimization,
                  C. Bannwarth                     DFT functionals, gCP, sTDA/sTD-DF
   Ed Valeev, F. Pavosevic, A. Kumar             : LibInt (2-el integral package), F12 methods
   Garnet Chan, S. Sharma, J. Yang, R. Olivares  : DMRG
   Ulf Ekstrom                                   : XCFun DFT Library
   Mihaly Kallay                                 : mrcc  (arbitrary order and MRCC methods)
   Andreas Klamt, Michael Diedenhofen            : otool_cosmo (COSMO solvation model)
   Jiri Pittner, Ondrej Demel                    : Mk-CCSD
   Frank Weinhold                                : gennbo (NPA and NBO analysis)
   Christopher J. Cramer and Donald G. Truhlar   : smd solvation model
   Lars Goerigk                                  : TD-DFT with DH, B97 family of functionals
   V. Asgeirsson, H. Jonsson                     : NEB implementation
   FAccTs GmbH                                   : IRC, NEB, NEB-TS, Multilevel, MM, QM/MM, CI optimization
   S Lehtola, MJT Oliveira, MAL Marques          : LibXC Library


 Your calculation uses the libint2 library for the computation of 2-el integrals
 For citations please refer to: http://libint.valeyev.net

 Your ORCA version has been built with support for libXC version: 4.2.3
 For citations please refer to: https://tddft.org/programs/libxc/

 This ORCA versions uses:
   CBLAS   interface :  Fast vector & matrix operations
   LAPACKE interface :  Fast linear algebra routines
   SCALAPACK package :  Parallel linear algebra routines


Your calculation utilizes the atom-pairwise dispersion correction
with the zero-damping scheme (D30)
Cite in your paper:
S.Grimme, J.Antony, S.Ehrlich and H.Krieg, J.Chem.Phys., 132, (2010), 154104 
   

XCFun DFT library Copyright 2009-2010 Ulf Ekstrom and contributors.
See http://admol.org/xcfun for more information. This is free soft-
ware; see the source code for copying conditions. There is ABSOLUTELY
NO WARRANTY; not even for MERCHANTABILITY or FITNESS FOR A PARTICULAR
PURPOSE. For details see the documentation. Scientific users of this 
library should cite U. Ekstrom, L. Visscher, R. Bast, A. J. Thorvald-
sen and K. Ruud; J.Chem.Theor.Comp. 2010, DOI: 10.1021/ct100117s
XCFun Version 0.99 
----- Orbital basis set information -----
Your calculation utilizes the basis: def2-TZVP
   F. Weigend and R. Ahlrichs, Phys. Chem. Chem. Phys. 7, 3297 (2005).

----- AuxJ basis set information -----
Your calculation utilizes the auxiliary basis: def2/J
   F. Weigend, Phys. Chem. Chem. Phys. 8, 1057 (2006).

================================================================================
                                        WARNINGS
                       Please study these warnings very carefully!
================================================================================


WARNING: Geometry Optimization
  ===> : Switching off AutoStart
         For restart on a previous wavefunction, please use MOREAD

INFO   : the flag for use of LIBINT has been found!

================================================================================
                                       INPUT FILE
================================================================================
NAME = TTN.inp
|  1> # avogadro generated ORCA input file 
|  2> # Basic Mode
|  3> # 
|  4> ! wB97X-D3 OPT def2-TZVP def2/J CPCM
|  5> %cpcm
|  6>   epsilon 3
|  7> end
|  8> %pal
|  9>  nprocs 4
| 10> end
| 11> 
| 12> * xyz 0 1
| 13>    C       -9.31066        1.04047        0.08788
| 14>    C       -9.23788       -0.34933        0.15573
| 15>    C       -8.14435        1.80658        0.08107
| 16>    H      -10.27628        1.52735        0.04025
| 17>    C       -7.99806       -0.98675        0.21751
| 18>    H      -10.14725       -0.93649        0.16052
| 19>    C       -6.88042        1.18705        0.14257
| 20>    H       -8.24404        2.88224        0.02744
| 21>    C       -6.80590       -0.23584        0.21211
| 22>    H       -7.98484       -2.06703        0.26916
| 23>    C       -5.68651        1.94546        0.13673
| 24>    C       -5.53945       -0.86266        0.27411
| 25>    C       -4.45811        1.30365        0.19839
| 26>    C       -4.38495       -0.09340        0.26681
| 27>    C       -3.30360        2.07291        0.19092
| 28>    C       -3.15655       -0.73521        0.32859
| 29>    C       -2.03715        1.44608        0.25286
| 30>    C       -1.96264        0.02321        0.32268
| 31>    C       -0.84498        2.19697        0.24714
| 32>    C        0.39483        1.55956        0.30896
| 33>    H       -0.85820        3.27724        0.19517
| 34>    C       -0.69871       -0.59632        0.38430
| 35>    C        0.46761        0.16978        0.37723
| 36>    H       -0.59903       -1.67197        0.43823
| 37>    H        1.30421        2.14671        0.30390
| 38>    H        1.43323       -0.31710        0.42495
| 39>    S       -5.65674        3.73894        0.05217
| 40>    S       -3.52052        3.85317        0.10045
| 41>    S       -5.32252       -2.64294        0.36429
| 42>    S       -3.18633       -2.52867        0.41343
| 43> *
| 44> 
| 45> 
| 46>                          ****END OF INPUT****
================================================================================

                       *****************************
                       * Geometry Optimization Run *
                       *****************************

Geometry optimization settings:
Update method            Update   .... BFGS
Choice of coordinates    CoordSys .... Z-matrix Internals
Initial Hessian          InHess   .... Almoef's Model

Convergence Tolerances:
Energy Change            TolE     ....  5.0000e-06 Eh
Max. Gradient            TolMAXG  ....  3.0000e-04 Eh/bohr
RMS Gradient             TolRMSG  ....  1.0000e-04 Eh/bohr
Max. Displacement        TolMAXD  ....  4.0000e-03 bohr
RMS Displacement         TolRMSD  ....  2.0000e-03 bohr
Strict Convergence                ....  False
------------------------------------------------------------------------------
                        ORCA OPTIMIZATION COORDINATE SETUP
------------------------------------------------------------------------------

The optimization will be done in new redundant internal coordinates
Making redundant internal coordinates   ...  (new redundants) done
Evaluating the initial hessian          ...  (Almloef) done
Evaluating the coordinates              ...  done
Calculating the B-matrix                .... done
Calculating the G-matrix                .... done
Diagonalizing the G-matrix              .... done
Small eigenvalue found = 2.248e-02
The first mode is                       ....  103
The number of degrees of freedom        ....   84

    -----------------------------------------------------------------
                    Redundant Internal Coordinates


    -----------------------------------------------------------------
         Definition                    Initial Value    Approx d2E/dq
    -----------------------------------------------------------------
      1. B(C   1,C   0)                  1.3934         0.617138   
      2. B(C   2,C   0)                  1.3954         0.612436   
      3. B(H   3,C   0)                  1.0825         0.370199   
      4. B(C   4,C   1)                  1.3954         0.612416   
      5. B(H   5,C   1)                  1.0825         0.370205   
      6. B(C   6,C   2)                  1.4089         0.582797   
      7. B(H   7,C   2)                  1.0816         0.371385   
      8. B(C   8,C   6)                  1.4265         0.546321   
      9. B(C   8,C   4)                  1.4090         0.582780   
     10. B(H   9,C   4)                  1.0816         0.371392   
     11. B(C  10,C   6)                  1.4144         0.571144   
     12. B(C  11,C   8)                  1.4144         0.571143   
     13. B(C  12,C  10)                  1.3873         0.630952   
     14. B(C  13,C  12)                  1.4006         0.600854   
     15. B(C  13,C  11)                  1.3873         0.630955   
     16. B(C  14,C  12)                  1.3873         0.630934   
     17. B(C  15,C  13)                  1.3873         0.630939   
     18. B(C  16,C  14)                  1.4144         0.571139   
     19. B(C  17,C  16)                  1.4265         0.546334   
     20. B(C  17,C  15)                  1.4144         0.571132   
     21. B(C  18,C  16)                  1.4089         0.582782   
     22. B(C  19,C  18)                  1.3954         0.612443   
     23. B(H  20,C  18)                  1.0816         0.371385   
     24. B(C  21,C  17)                  1.4089         0.582786   
     25. B(C  22,C  21)                  1.3954         0.612427   
     26. B(C  22,C  19)                  1.3934         0.617137   
     27. B(H  23,C  21)                  1.0816         0.371380   
     28. B(H  24,C  19)                  1.0825         0.370199   
     29. B(H  25,C  22)                  1.0825         0.370194   
     30. B(S  26,C  10)                  1.7957         0.379496   
     31. B(S  27,C  14)                  1.7957         0.379513   
     32. B(S  27,S  26)                  2.1398         0.289061   
     33. B(S  28,C  11)                  1.7957         0.379504   
     34. B(S  29,S  28)                  2.1398         0.289070   
     35. B(S  29,C  15)                  1.7957         0.379505   
     36. A(C   1,C   0,H   3)          119.8265         0.354288   
     37. A(C   1,C   0,C   2)          120.2775         0.432749   
     38. A(C   2,C   0,H   3)          119.8960         0.353830   
     39. A(C   0,C   1,C   4)          120.2771         0.432746   
     40. A(C   0,C   1,H   5)          119.8267         0.354289   
     41. A(C   4,C   1,H   5)          119.8962         0.353829   
     42. A(C   0,C   2,H   7)          117.9825         0.354021   
     43. A(C   0,C   2,C   6)          120.5413         0.428323   
     44. A(C   6,C   2,H   7)          121.4762         0.351062   
     45. A(C   8,C   4,H   9)          121.4766         0.351062   
     46. A(C   1,C   4,H   9)          117.9826         0.354021   
     47. A(C   1,C   4,C   8)          120.5408         0.428318   
     48. A(C   2,C   6,C  10)          121.4168         0.423004   
     49. A(C   2,C   6,C   8)          119.1816         0.419661   
     50. A(C   8,C   6,C  10)          119.4016         0.418153   
     51. A(C   4,C   8,C  11)          121.4163         0.423002   
     52. A(C   4,C   8,C   6)          119.1817         0.419659   
     53. A(C   6,C   8,C  11)          119.4020         0.418153   
     54. A(C   6,C  10,C  12)          119.9439         0.429060   
     55. A(C   6,C  10,S  26)          123.3471         0.413376   
     56. A(C  12,C  10,S  26)          116.7090         0.420771   
     57. A(C  13,C  11,S  28)          116.7089         0.420773   
     58. A(C   8,C  11,C  13)          119.9437         0.429060   
     59. A(C   8,C  11,S  28)          123.3474         0.413377   
     60. A(C  13,C  12,C  14)          120.6546         0.432983   
     61. A(C  10,C  12,C  14)          118.6910         0.436810   
     62. A(C  10,C  12,C  13)          120.6544         0.432985   
     63. A(C  12,C  13,C  15)          120.6545         0.432984   
     64. A(C  11,C  13,C  12)          120.6545         0.432986   
     65. A(C  11,C  13,C  15)          118.6910         0.436811   
     66. A(C  12,C  14,C  16)          119.9432         0.429057   
     67. A(C  16,C  14,S  27)          123.3477         0.413379   
     68. A(C  12,C  14,S  27)          116.7091         0.420772   
     69. A(C  17,C  15,S  29)          123.3477         0.413376   
     70. A(C  13,C  15,S  29)          116.7090         0.420771   
     71. A(C  13,C  15,C  17)          119.9432         0.429057   
     72. A(C  14,C  16,C  18)          121.4162         0.423001   
     73. A(C  14,C  16,C  17)          119.4022         0.418155   
     74. A(C  17,C  16,C  18)          119.1816         0.419661   
     75. A(C  15,C  17,C  16)          119.4022         0.418154   
     76. A(C  16,C  17,C  21)          119.1816         0.419662   
     77. A(C  15,C  17,C  21)          121.4162         0.423001   
     78. A(C  19,C  18,H  20)          117.9829         0.354022   
     79. A(C  16,C  18,H  20)          121.4760         0.351061   
     80. A(C  16,C  18,C  19)          120.5411         0.428322   
     81. A(C  22,C  19,H  24)          119.8263         0.354288   
     82. A(C  18,C  19,H  24)          119.8963         0.353830   
     83. A(C  18,C  19,C  22)          120.2775         0.432749   
     84. A(C  22,C  21,H  23)          117.9827         0.354020   
     85. A(C  17,C  21,H  23)          121.4762         0.351060   
     86. A(C  17,C  21,C  22)          120.5411         0.428320   
     87. A(C  21,C  22,H  25)          119.8958         0.353828   
     88. A(C  19,C  22,H  25)          119.8271         0.354287   
     89. A(C  19,C  22,C  21)          120.2771         0.432747   
     90. A(C  10,S  26,S  27)           93.9453         0.404454   
     91. A(C  14,S  27,S  26)           93.9456         0.404457   
     92. A(C  11,S  28,S  29)           93.9457         0.404458   
     93. A(C  15,S  29,S  28)           93.9454         0.404458   
     94. D(C   4,C   1,C   0,H   3)   -179.9980         0.026340   
     95. D(C   4,C   1,C   0,C   2)      0.0033         0.026340   
     96. D(H   5,C   1,C   0,C   2)   -179.9978         0.026340   
     97. D(H   5,C   1,C   0,H   3)      0.0009         0.026340   
     98. D(C   6,C   2,C   0,C   1)     -0.0013         0.025917   
     99. D(H   7,C   2,C   0,H   3)      0.0003         0.025917   
    100. D(H   7,C   2,C   0,C   1)    179.9990         0.025917   
    101. D(C   6,C   2,C   0,H   3)   -180.0000         0.025917   
    102. D(H   9,C   4,C   1,H   5)      0.0003         0.025915   
    103. D(H   9,C   4,C   1,C   0)    179.9993         0.025915   
    104. D(C   8,C   4,C   1,C   0)     -0.0018         0.025915   
    105. D(C   8,C   4,C   1,H   5)    179.9993         0.025915   
    106. D(C  10,C   6,C   2,C   0)    179.9954         0.023346   
    107. D(C   8,C   6,C   2,C   0)     -0.0021         0.023346   
    108. D(C   8,C   6,C   2,H   7)    179.9976         0.023346   
    109. D(C  10,C   6,C   2,H   7)     -0.0049         0.023346   
    110. D(C  11,C   8,C   6,C  10)      0.0065         0.020409   
    111. D(C   4,C   8,C   6,C  10)   -179.9941         0.020409   
    112. D(C  11,C   8,C   4,H   9)     -0.0033         0.023344   
    113. D(C   4,C   8,C   6,C   2)      0.0036         0.020409   
    114. D(C   6,C   8,C   4,H   9)    179.9973         0.023344   
    115. D(C  11,C   8,C   6,C   2)   -179.9958         0.020409   
    116. D(C   6,C   8,C   4,C   1)     -0.0016         0.023344   
    117. D(C  11,C   8,C   4,C   1)    179.9978         0.023344   
    118. D(S  26,C  10,C   6,C   8)    179.9985         0.022381   
    119. D(S  26,C  10,C   6,C   2)      0.0009         0.022381   
    120. D(C  12,C  10,C   6,C   8)     -0.0024         0.022381   
    121. D(C  12,C  10,C   6,C   2)   -180.0000         0.022381   
    122. D(S  28,C  11,C   8,C   4)     -0.0005         0.022381   
    123. D(C  13,C  11,C   8,C   6)     -0.0039         0.022381   
    124. D(C  13,C  11,C   8,C   4)    179.9967         0.022381   
    125. D(S  28,C  11,C   8,C   6)    179.9989         0.022381   
    126. D(C  14,C  12,C  10,S  26)     -0.0063         0.027608   
    127. D(C  14,C  12,C  10,C   6)    179.9946         0.027608   
    128. D(C  13,C  12,C  10,S  26)    179.9948         0.027608   
    129. D(C  13,C  12,C  10,C   6)     -0.0043         0.027608   
    130. D(C  15,C  13,C  12,C  14)      0.0069         0.024892   
    131. D(C  11,C  13,C  12,C  14)   -179.9918         0.024892   
    132. D(C  11,C  13,C  12,C  10)      0.0070         0.024892   
    133. D(C  15,C  13,C  11,S  28)     -0.0042         0.027608   
    134. D(C  15,C  13,C  11,C   8)    179.9985         0.027608   
    135. D(C  15,C  13,C  12,C  10)   -179.9942         0.024892   
    136. D(C  12,C  13,C  11,S  28)    179.9945         0.027608   
    137. D(C  12,C  13,C  11,C   8)     -0.0028         0.027608   
    138. D(S  27,C  14,C  12,C  13)    179.9945         0.027606   
    139. D(S  27,C  14,C  12,C  10)     -0.0044         0.027606   
    140. D(C  16,C  14,C  12,C  13)     -0.0026         0.027606   
    141. D(C  16,C  14,C  12,C  10)    179.9985         0.027606   
    142. D(S  29,C  15,C  13,C  12)    179.9947         0.027607   
    143. D(S  29,C  15,C  13,C  11)     -0.0065         0.027607   
    144. D(C  17,C  15,C  13,C  12)     -0.0047         0.027607   
    145. D(C  17,C  15,C  13,C  11)    179.9940         0.027607   
    146. D(C  18,C  16,C  14,S  27)     -0.0006         0.022380   
    147. D(C  18,C  16,C  14,C  12)    179.9962         0.022380   
    148. D(C  17,C  16,C  14,S  27)    179.9995         0.022380   
    149. D(C  17,C  16,C  14,C  12)     -0.0037         0.022380   
    150. D(C  15,C  17,C  16,C  18)   -179.9942         0.020410   
    151. D(C  15,C  17,C  16,C  14)      0.0058         0.020410   
    152. D(C  21,C  17,C  15,S  29)      0.0005         0.022380   
    153. D(C  21,C  17,C  15,C  13)    179.9999         0.022380   
    154. D(C  16,C  17,C  15,S  29)    179.9990         0.022380   
    155. D(C  21,C  17,C  16,C  14)   -179.9957         0.020410   
    156. D(C  16,C  17,C  15,C  13)     -0.0016         0.022380   
    157. D(C  21,C  17,C  16,C  18)      0.0044         0.020410   
    158. D(H  20,C  18,C  16,C  17)    179.9965         0.023345   
    159. D(H  20,C  18,C  16,C  14)     -0.0035         0.023345   
    160. D(C  19,C  18,C  16,C  17)     -0.0024         0.023345   
    161. D(C  19,C  18,C  16,C  14)    179.9977         0.023345   
    162. D(H  24,C  19,C  18,H  20)      0.0005         0.025917   
    163. D(H  24,C  19,C  18,C  16)    179.9994         0.025917   
    164. D(C  22,C  19,C  18,H  20)   -180.0000         0.025917   
    165. D(C  22,C  19,C  18,C  16)     -0.0011         0.025917   
    166. D(H  23,C  21,C  17,C  16)    179.9970         0.023345   
    167. D(H  23,C  21,C  17,C  15)     -0.0045         0.023345   
    168. D(C  22,C  21,C  17,C  16)     -0.0030         0.023345   
    169. D(C  22,C  21,C  17,C  15)    179.9955         0.023345   
    170. D(H  25,C  22,C  21,H  23)      0.0004         0.025916   
    171. D(H  25,C  22,C  21,C  17)   -179.9997         0.025916   
    172. D(C  19,C  22,C  21,H  23)    179.9996         0.025916   
    173. D(C  19,C  22,C  21,C  17)     -0.0005         0.025916   
    174. D(H  25,C  22,C  19,H  24)      0.0013         0.026340   
    175. D(H  25,C  22,C  19,C  18)   -179.9982         0.026340   
    176. D(C  21,C  22,C  19,H  24)   -179.9979         0.026340   
    177. D(C  21,C  22,C  19,C  18)      0.0026         0.026340   
    178. D(S  27,S  26,C  10,C  12)      0.0113         0.003585   
    179. D(S  27,S  26,C  10,C   6)   -179.9896         0.003585   
    180. D(C  14,S  27,S  26,C  10)     -0.0107         0.001850   
    181. D(S  26,S  27,C  14,C  16)   -179.9927         0.003585   
    182. D(S  26,S  27,C  14,C  12)      0.0103         0.003585   
    183. D(S  29,S  28,C  11,C  13)      0.0102         0.003585   
    184. D(S  29,S  28,C  11,C   8)   -179.9925         0.003585   
    185. D(C  15,S  29,S  28,C  11)     -0.0107         0.001850   
    186. D(S  28,S  29,C  15,C  17)   -179.9892         0.003585   
    187. D(S  28,S  29,C  15,C  13)      0.0114         0.003585   
    -----------------------------------------------------------------

Number of atoms                         .... 30
Number of degrees of freedom            .... 187

         *************************************************************
         *                GEOMETRY OPTIMIZATION CYCLE   1            *
         *************************************************************
---------------------------------
CARTESIAN COORDINATES (ANGSTROEM)
---------------------------------
  C     -9.310660    1.040470    0.087880
  C     -9.237880   -0.349330    0.155730
  C     -8.144350    1.806580    0.081070
  H    -10.276280    1.527350    0.040250
  C     -7.998060   -0.986750    0.217510
  H    -10.147250   -0.936490    0.160520
  C     -6.880420    1.187050    0.142570
  H     -8.244040    2.882240    0.027440
  C     -6.805900   -0.235840    0.212110
  H     -7.984840   -2.067030    0.269160
  C     -5.686510    1.945460    0.136730
  C     -5.539450   -0.862660    0.274110
  C     -4.458110    1.303650    0.198390
  C     -4.384950   -0.093400    0.266810
  C     -3.303600    2.072910    0.190920
  C     -3.156550   -0.735210    0.328590
  C     -2.037150    1.446080    0.252860
  C     -1.962640    0.023210    0.322680
  C     -0.844980    2.196970    0.247140
  C      0.394830    1.559560    0.308960
  H     -0.858200    3.277240    0.195170
  C     -0.698710   -0.596320    0.384300
  C      0.467610    0.169780    0.377230
  H     -0.599030   -1.671970    0.438230
  H      1.304210    2.146710    0.303900
  H      1.433230   -0.317100    0.424950
  S     -5.656740    3.738940    0.052170
  S     -3.520520    3.853170    0.100450
  S     -5.322520   -2.642940    0.364290
  S     -3.186330   -2.528670    0.413430

----------------------------
CARTESIAN COORDINATES (A.U.)
----------------------------
  NO LB      ZA    FRAG     MASS         X           Y           Z
   0 C     6.0000    0    12.011  -17.594598    1.966203    0.166069
   1 C     6.0000    0    12.011  -17.457063   -0.660138    0.294287
   2 C     6.0000    0    12.011  -15.390591    3.413941    0.153200
   3 H     1.0000    0     1.008  -19.419355    2.886273    0.076061
   4 C     6.0000    0    12.011  -15.114143   -1.864687    0.411034
   5 H     1.0000    0     1.008  -19.175524   -1.769710    0.303339
   6 C     6.0000    0    12.011  -13.002109    2.243199    0.269418
   7 H     1.0000    0     1.008  -15.578978    5.446644    0.051854
   8 C     6.0000    0    12.011  -12.861287   -0.445673    0.400830
   9 H     1.0000    0     1.008  -15.089161   -3.906121    0.508639
  10 C     6.0000    0    12.011  -10.745947    3.676387    0.258382
  11 C     6.0000    0    12.011  -10.468043   -1.630191    0.517993
  12 C     6.0000    0    12.011   -8.424607    2.463541    0.374903
  13 C     6.0000    0    12.011   -8.286355   -0.176500    0.504198
  14 C     6.0000    0    12.011   -6.242899    3.917232    0.360787
  15 C     6.0000    0    12.011   -5.965015   -1.389346    0.620945
  16 C     6.0000    0    12.011   -3.849656    2.732695    0.477836
  17 C     6.0000    0    12.011   -3.708852    0.043861    0.609777
  18 C     6.0000    0    12.011   -1.596781    4.151672    0.467027
  19 C     6.0000    0    12.011    0.746121    2.947141    0.583850
  20 H     1.0000    0     1.008   -1.621763    6.193086    0.368818
  21 C     6.0000    0    12.011   -1.320371   -1.126881    0.726222
  22 C     6.0000    0    12.011    0.883655    0.320838    0.712861
  23 H     1.0000    0     1.008   -1.132003   -3.159565    0.828135
  24 H     1.0000    0     1.008    2.464600    4.056694    0.574288
  25 H     1.0000    0     1.008    2.708412   -0.599232    0.803039
  26 S    16.0000    0    32.060  -10.689689    7.065573    0.098587
  27 S    16.0000    0    32.060   -6.652819    7.281436    0.189823
  28 S    16.0000    0    32.060  -10.058105   -4.994433    0.688408
  29 S    16.0000    0    32.060   -6.021291   -4.778494    0.781269

--------------------------------
INTERNAL COORDINATES (ANGSTROEM)
--------------------------------
 C      0   0   0     0.000000000000     0.00000000     0.00000000
 C      1   0   0     1.393357309128     0.00000000     0.00000000
 C      1   2   0     1.395438971901   120.27754098     0.00000000
 H      1   2   3     1.082470662743   119.82649784   179.99867286
 C      2   1   3     1.395447833923   120.27714066     0.00000000
 H      2   1   3     1.082466445946   119.82665548   180.00222542
 C      3   1   2     1.408942410392   120.54125650     0.00000000
 H      3   1   2     1.081600068695   117.98250258   179.99899315
 C      5   2   1     1.408950124632   120.54078540     0.00000000
 H      5   2   1     1.081594826772   117.98261911   179.99925045
 C      7   3   1     1.414440144297   121.41684495   179.99544807
 C      9   5   2     1.414440848852   121.41626757   179.99775930
 C     11   7   3     1.387331464251   119.94388557   180.00000085
 C     12   9   5     1.387329985115   119.94365309   179.99666406
 C     13  11   7     1.387339211801   118.69100253   179.99456802
 C     14  12   9     1.387336802835   118.69099954   179.99846157
 C     15  13  11     1.414442651718   119.94321900   179.99851822
 C     16  14  12     1.414445796982   119.94324106   179.99404052
 C     17  15  13     1.408949189786   121.41618539   179.99624003
 C     19  17  15     1.395436152821   120.54111569   179.99770646
 H     19  17  15     1.081600167437   121.47596554     0.00000000
 C     18  16  14     1.408947653463   121.41619722   179.99990316
 C     20  19  17     1.393357875673   120.27745158     0.00000000
 H     22  18  16     1.081604118798   121.47624737     0.00000000
 H     20  19  17     1.082470651103   119.89629331   179.99939466
 H     23  20  19     1.082474626585   119.82708281   180.00176214
 S     11   7   3     1.795719119712   123.34714201     0.00000000
 S     15  13  11     1.795707318830   116.70911439     0.00000000
 S     12   9   5     1.795713767754   123.34744003     0.00000000
 S     16  14  12     1.795712517526   116.70902735     0.00000000

---------------------------
INTERNAL COORDINATES (A.U.)
---------------------------
 C      0   0   0     0.000000000000     0.00000000     0.00000000
 C      1   0   0     2.633063720949     0.00000000     0.00000000
 C      1   2   0     2.636997493493   120.27754098     0.00000000
 H      1   2   3     2.045573100589   119.82649784   179.99867286
 C      2   1   3     2.637014240288   120.27714066     0.00000000
 H      2   1   3     2.045565131998   119.82665548   180.00222542
 C      3   1   2     2.662515294107   120.54125650     0.00000000
 H      3   1   2     2.043927916263   117.98250258   179.99899315
 C      5   2   1     2.662529871908   120.54078540     0.00000000
 H      5   2   1     2.043918010465   117.98261911   179.99925045
 C      7   3   1     2.672904505546   121.41684495   179.99544807
 C      9   5   2     2.672905836961   121.41626757   179.99775930
 C     11   7   3     2.621676524406   119.94388557   180.00000085
 C     12   9   5     2.621673729245   119.94365309   179.99666406
 C     13  11   7     2.621691165154   118.69100253   179.99456802
 C     14  12   9     2.621686612868   118.69099954   179.99846157
 C     15  13  11     2.672909243885   119.94321900   179.99851822
 C     16  14  12     2.672915187572   119.94324106   179.99404052
 C     17  15  13     2.662528105307   121.41618539   179.99624003
 C     19  17  15     2.636992166204   120.54111569   179.99770646
 H     19  17  15     2.043928102860   121.47596554     0.00000000
 C     18  16  14     2.662525202077   121.41619722   179.99990316
 C     20  19  17     2.633064791564   120.27745158     0.00000000
 H     22  18  16     2.043935569849   121.47624737     0.00000000
 H     20  19  17     2.045573078593   119.89629331   179.99939466
 H     23  20  19     2.045580591164   119.82708281   180.00176214
 S     11   7   3     3.393417349702   123.34714201     0.00000000
 S     15  13  11     3.393395049267   116.70911439     0.00000000
 S     12   9   5     3.393407235966   123.34744003     0.00000000
 S     16  14  12     3.393404873379   116.70902735     0.00000000

---------------------
BASIS SET INFORMATION
---------------------
There are 3 groups of distinct atoms

 Group   1 Type C   : 11s6p2d1f contracted to 5s3p2d1f pattern {62111/411/11/1}
 Group   2 Type H   : 5s1p contracted to 3s1p pattern {311/1}
 Group   3 Type S   : 14s9p3d1f contracted to 5s5p2d1f pattern {73211/51111/21/1}

Atom   0C    basis set group =>   1
Atom   1C    basis set group =>   1
Atom   2C    basis set group =>   1
Atom   3H    basis set group =>   2
Atom   4C    basis set group =>   1
Atom   5H    basis set group =>   2
Atom   6C    basis set group =>   1
Atom   7H    basis set group =>   2
Atom   8C    basis set group =>   1
Atom   9H    basis set group =>   2
Atom  10C    basis set group =>   1
Atom  11C    basis set group =>   1
Atom  12C    basis set group =>   1
Atom  13C    basis set group =>   1
Atom  14C    basis set group =>   1
Atom  15C    basis set group =>   1
Atom  16C    basis set group =>   1
Atom  17C    basis set group =>   1
Atom  18C    basis set group =>   1
Atom  19C    basis set group =>   1
Atom  20H    basis set group =>   2
Atom  21C    basis set group =>   1
Atom  22C    basis set group =>   1
Atom  23H    basis set group =>   2
Atom  24H    basis set group =>   2
Atom  25H    basis set group =>   2
Atom  26S    basis set group =>   3
Atom  27S    basis set group =>   3
Atom  28S    basis set group =>   3
Atom  29S    basis set group =>   3
---------------------------------
AUXILIARY/J BASIS SET INFORMATION
---------------------------------
There are 3 groups of distinct atoms

 Group   1 Type C   : 12s5p4d2f1g contracted to 6s4p3d1f1g pattern {711111/2111/211/2/1}
 Group   2 Type H   : 5s2p1d contracted to 3s1p1d pattern {311/2/1}
 Group   3 Type S   : 14s5p5d2f1g contracted to 8s4p3d1f1g pattern {71111111/2111/311/2/1}

Atom   0C    basis set group =>   1
Atom   1C    basis set group =>   1
Atom   2C    basis set group =>   1
Atom   3H    basis set group =>   2
Atom   4C    basis set group =>   1
Atom   5H    basis set group =>   2
Atom   6C    basis set group =>   1
Atom   7H    basis set group =>   2
Atom   8C    basis set group =>   1
Atom   9H    basis set group =>   2
Atom  10C    basis set group =>   1
Atom  11C    basis set group =>   1
Atom  12C    basis set group =>   1
Atom  13C    basis set group =>   1
Atom  14C    basis set group =>   1
Atom  15C    basis set group =>   1
Atom  16C    basis set group =>   1
Atom  17C    basis set group =>   1
Atom  18C    basis set group =>   1
Atom  19C    basis set group =>   1
Atom  20H    basis set group =>   2
Atom  21C    basis set group =>   1
Atom  22C    basis set group =>   1
Atom  23H    basis set group =>   2
Atom  24H    basis set group =>   2
Atom  25H    basis set group =>   2
Atom  26S    basis set group =>   3
Atom  27S    basis set group =>   3
Atom  28S    basis set group =>   3
Atom  29S    basis set group =>   3


           ************************************************************
           *        Program running with 4 parallel MPI-processes     *
           *              working on a common directory               *
           ************************************************************
------------------------------------------------------------------------------
                           ORCA GTO INTEGRAL CALCULATION
------------------------------------------------------------------------------

                         BASIS SET STATISTICS AND STARTUP INFO

 # of primitive gaussian shells          ...  516
 # of primitive gaussian functions       ... 1144
 # of contracted shells                  ...  282
 # of contracted basis functions         ...  754
 Highest angular momentum                ...    3
 Maximum contraction depth               ...    7
 Integral package used                   ... LIBINT
 Integral threshhold            Thresh   ...  2.500e-11
 Primitive cut-off              TCut     ...  2.500e-12


------------------------------ INTEGRAL EVALUATION ----------------------------


 * One electron integrals 
 Pre-screening matrix                    ... done
 Shell pair data                         ... done (   0.009 sec)



           ************************************************************
           *        Program running with 4 parallel MPI-processes     *
           *              working on a common directory               *
           ************************************************************
-------------------------------------------------------------------------------
                                 ORCA SCF
-------------------------------------------------------------------------------

------------
SCF SETTINGS
------------
Hamiltonian:
 Density Functional     Method          .... DFT(GTOs)
 Exchange Functional    Exchange        .... WB97X-D3
 Correlation Functional Correlation     .... WB97X-D3
 Gradients option       PostSCFGGA      .... off
 Hybrid DFT is turned on
   Fraction HF Exchange ScalHFX         ....  0.195728
   Scaling of DF-GGA-X  ScalDFX         ....  0.000000
   Scaling of DF-GGA-C  ScalDFC         ....  1.000000
   Scaling of DF-LDA-C  ScalLDAC        ....  1.000000
   Perturbative correction              ....  0.000000
   Density functional embedding theory  .... OFF
 Long-range corrected/Screened/Range-Separated Hybrid DFT is turned on
   Amount of maximum screened exact exchange              ....  0.804272
   Range separation parameter mu (erf(mu*r12)/r12)        ....  0.250000


General Settings:
 Integral files         IntName         .... TTN
 Hartree-Fock type      HFTyp           .... RHF
 Total Charge           Charge          ....    0
 Multiplicity           Mult            ....    1
 Number of Electrons    NEL             ....  180
 Basis Dimension        Dim             ....  754
 Nuclear Repulsion      ENuc            ....   2222.9062839139 Eh

Convergence Acceleration:
 DIIS                   CNVDIIS         .... on
   Start iteration      DIISMaxIt       ....    12
   Startup error        DIISStart       ....  0.200000
   # of expansion vecs  DIISMaxEq       ....     5
   Bias factor          DIISBfac        ....   1.050
   Max. coefficient     DIISMaxC        ....  10.000
 Newton-Raphson         CNVNR           .... off
 SOSCF                  CNVSOSCF        .... on
   Start iteration      SOSCFMaxIt      ....   150
   Startup grad/error   SOSCFStart      ....  0.003300
 Level Shifting         CNVShift        .... on
   Level shift para.    LevelShift      ....    0.2500
   Turn off err/grad.   ShiftErr        ....    0.0010
 Zerner damping         CNVZerner       .... off
 Static damping         CNVDamp         .... on
   Fraction old density DampFac         ....    0.7000
   Max. Damping (<1)    DampMax         ....    0.9800
   Min. Damping (>=0)   DampMin         ....    0.0000
   Turn off err/grad.   DampErr         ....    0.1000
 Fernandez-Rico         CNVRico         .... off

SCF Procedure:
 Maximum # iterations   MaxIter         ....   125
 SCF integral mode      SCFMode         .... Direct
   Integral package                     .... LIBINT
 Reset frequency        DirectResetFreq ....    20
 Integral Threshold     Thresh          ....  2.500e-11 Eh
 Primitive CutOff       TCut            ....  2.500e-12 Eh

Convergence Tolerance:
 Convergence Check Mode ConvCheckMode   .... Total+1el-Energy
 Convergence forced     ConvForced      .... 0
 Energy Change          TolE            ....  1.000e-08 Eh
 1-El. energy change                    ....  1.000e-05 Eh
 Orbital Gradient       TolG            ....  1.000e-05
 Orbital Rotation angle TolX            ....  1.000e-05
 DIIS Error             TolErr          ....  5.000e-07


Diagonalization of the overlap matrix:
Smallest eigenvalue                        ... 2.543e-06
Time for diagonalization                   ...    0.099 sec
Threshold for overlap eigenvalues          ... 1.000e-08
Number of eigenvalues below threshold      ... 0
Time for construction of square roots      ...    0.054 sec
Total time needed                          ...    0.155 sec

-------------------
DFT GRID GENERATION
-------------------

General Integration Accuracy     IntAcc      ...  4.340
Radial Grid Type                 RadialGrid  ... Gauss-Chebyshev
Angular Grid (max. acc.)         AngularGrid ... Lebedev-110
Angular grid pruning method      GridPruning ... 3 (G Style)
Weight generation scheme         WeightScheme... Becke
Basis function cutoff            BFCut       ...    1.0000e-11
Integration weight cutoff        WCut        ...    1.0000e-14
Grids for H and He will be reduced by one unit

# of grid points (after initial pruning)     ...  43384 (   0.0 sec)
# of grid points (after weights+screening)   ...  38955 (   0.1 sec)
nearest neighbour list constructed           ...    0.0 sec
Grid point re-assignment to atoms done       ...    0.0 sec
Grid point division into batches done        ...    0.0 sec
Reduced shell lists constructed in    0.2 sec

Total number of grid points                  ...    38955
Total number of batches                      ...      626
Average number of points per batch           ...       62
Average number of grid points per atom       ...     1298
Average number of shells per batch           ...   121.63 (43.13%)
Average number of basis functions per batch  ...   327.46 (43.43%)
Average number of large shells per batch     ...    83.82 (68.91%)
Average number of large basis fcns per batch ...   226.35 (69.13%)
Maximum spatial batch extension              ...  20.36, 18.02, 40.23 au
Average spatial batch extension              ...   0.80,  0.78,  1.36 au

Time for grid setup =    0.314 sec

------------------------------
INITIAL GUESS: MODEL POTENTIAL
------------------------------
Loading Hartree-Fock densities                     ... done
Calculating cut-offs                               ... done
Setting up the integral package                    ... done
Initializing the effective Hamiltonian             ... done
Starting the Coulomb interaction                   ... done (   0.5 sec)
Reading the grid                                   ... done
Mapping shells                                     ... done
Starting the XC term evaluation                    ... done (   0.6 sec)
  promolecular density results
     # of electrons  =    180.007820102
     EX              =   -194.123031076
     EC              =     -6.456963553
     EX+EC           =   -200.579994629
Transforming the Hamiltonian                       ... done (   0.0 sec)
Diagonalizing the Hamiltonian                      ... done (   0.1 sec)
Back transforming the eigenvectors                 ... done (   0.0 sec)
Now organizing SCF variables                       ... done
                      ------------------
                      INITIAL GUESS DONE (   1.7 sec)
                      ------------------

--------------------
CPCM SOLVATION MODEL
--------------------
CPCM parameters:
  Epsilon                                         ...       3.0000
  Refrac                                          ...       1.3300
  Rsolv                                           ...       1.3000
  Surface type                                    ...    GEPOL SES
  Epsilon function type                           ...         CPCM
Radii:
 Radius for C  used is    3.7795 Bohr (=   2.0000 Ang.)
 Radius for H  used is    2.4566 Bohr (=   1.3000 Ang.)
 Radius for S  used is    4.0818 Bohr (=   2.1600 Ang.)
Calculating surface                               ...        done! (  0.0s)
GEPOL surface points                              ...          862
GEPOL Volume                                      ...    2420.6339
GEPOL Surface-area                                ...    1117.2638
Calculating surface distance matrix               ...        done! (  0.0s)
Performing Cholesky decomposition & store         ...        done! (  0.0s)
Overall time for CPCM initialization              ...                 0.0s
--------------
SCF ITERATIONS
--------------
ITER       Energy         Delta-E        Max-DP      RMS-DP      [F,P]     Damp
               ***  Starting incremental Fock matrix formation  ***
  0  -2283.0963239136   0.000000000000 0.07008462  0.00093571  0.1475383 0.7000
  1  -2283.2885678561  -0.192243942531 0.05693132  0.00077743  0.0842451 0.7000
                               ***Turning on DIIS***
  2  -2283.3877505462  -0.099182690039 0.12617560  0.00178487  0.0445525 0.0000
  3  -2283.5456865043  -0.157935958151 0.08731174  0.00063971  0.0435370 0.0000
  4  -2283.5766736643  -0.030987159984 0.08984569  0.00061508  0.0093005 0.0000
  5  -2283.5792963352  -0.002622670882 0.06075552  0.00036649  0.0037137 0.0000
  6  -2283.5802965570  -0.001000221846 0.04429752  0.00024983  0.0024836 0.0000
  7  -2283.5807787674  -0.000482210333 0.02877662  0.00014964  0.0014103 0.0000
  8  -2283.5809900620  -0.000211294621 0.01821379  0.00008960  0.0007852 0.0000
                      *** Initiating the SOSCF procedure ***
                           *** Shutting down DIIS ***
                      *** Re-Reading the Fockian *** 
                      *** Removing any level shift *** 
ITER      Energy       Delta-E        Grad      Rot      Max-DP    RMS-DP
  9  -2283.58108411  -0.0000940480  0.000507  0.000507  0.001342  0.000008
               *** Restarting incremental Fock matrix formation ***
 10  -2283.58108702  -0.0000029119  0.000120  0.000368  0.001319  0.000008
 11  -2283.58108724  -0.0000002206  0.000094  0.000169  0.000361  0.000002
 12  -2283.58108763  -0.0000003862  0.000025  0.000110  0.000074  0.000001
 13  -2283.58108767  -0.0000000444  0.000014  0.000069  0.000136  0.000001
 14  -2283.58108768  -0.0000000089  0.000007  0.000014  0.000191  0.000001
                  ***Gradient check signals convergence***
              ***Rediagonalizing the Fockian in SOSCF/NRSCF***

               *****************************************************
               *                     SUCCESS                       *
               *           SCF CONVERGED AFTER  15 CYCLES          *
               *****************************************************

Setting up the final grid:

General Integration Accuracy     IntAcc      ...  4.670
Radial Grid Type                 RadialGrid  ... Gauss-Chebyshev
Angular Grid (max. acc.)         AngularGrid ... Lebedev-302
Angular grid pruning method      GridPruning ... 3 (G Style)
Weight generation scheme         WeightScheme... Becke
Basis function cutoff            BFCut       ...    1.0000e-11
Integration weight cutoff        WCut        ...    1.0000e-14
Grids for H and He will be reduced by one unit

# of grid points (after initial pruning)     ... 166352 (   0.0 sec)
# of grid points (after weights+screening)   ... 146814 (   0.3 sec)
nearest neighbour list constructed           ...    0.0 sec
Grid point re-assignment to atoms done       ...    0.0 sec
Grid point division into batches done        ...    0.6 sec
Reduced shell lists constructed in    1.1 sec

Total number of grid points                  ...   146814
Total number of batches                      ...     2310
Average number of points per batch           ...       63
Average number of grid points per atom       ...     4894
Average number of shells per batch           ...   108.71 (38.55%)
Average number of basis functions per batch  ...   289.85 (38.44%)
Average number of large shells per batch     ...    73.70 (67.79%)
Average number of large basis fcns per batch ...   196.28 (67.72%)
Maximum spatial batch extension              ...  15.16, 19.49, 23.11 au
Average spatial batch extension              ...   0.55,  0.56,  0.68 au

Final grid set up in    1.6 sec
Final integration                            ... done (   2.1 sec)
Change in XC energy                          ...     0.013615456
Integrated number of electrons               ...   179.999938453
Previous integrated no of electrons          ...   180.009447771

----------------
TOTAL SCF ENERGY
----------------

Total Energy       :        -2283.56747222 Eh          -62139.03001 eV

Components:
Nuclear Repulsion  :         2222.90628391 Eh           60488.35515 eV
Electronic Energy  :        -4506.47375614 Eh         -122627.38516 eV
One Electron Energy:        -7557.94304262 Eh         -205662.08585 eV
Two Electron Energy:         3051.46928648 Eh           83034.70069 eV
CPCM Dielectric    :           -0.00696550 Eh              -0.18954 eV

Virial components:
Potential Energy   :        -4561.15038247 Eh         -124115.21180 eV
Kinetic Energy     :         2277.58291025 Eh           61976.18180 eV
Virial Ratio       :            2.00262759


DFT components:
N(Alpha)           :       89.999969226371 electrons
N(Beta)            :       89.999969226371 electrons
N(Total)           :      179.999938452741 electrons
E(XC)              :     -145.706924232400 Eh       
DFET-embed. en.    :        0.000000000000 Eh       
CPCM Solvation Model Properties:
Surface-charge          :           -0.03711834
Charge-correction       :            0.00013061 Eh               0.00355 eV
Free-energy (cav+disp)  :            0.00547753 Eh               0.14905 eV
Corrected G(solv)       :        -2283.56186408 Eh          -62138.87740 eV

---------------
SCF CONVERGENCE
---------------

  Last Energy change         ...    3.6707e-09  Tolerance :   1.0000e-08
  Last MAX-Density change    ...    1.6664e-04  Tolerance :   1.0000e-07
  Last RMS-Density change    ...    9.1073e-07  Tolerance :   5.0000e-09
  Last Orbital Gradient      ...    1.3429e-06  Tolerance :   1.0000e-05
  Last Orbital Rotation      ...    4.6048e-06  Tolerance :   1.0000e-05

             **** THE GBW FILE WAS UPDATED (TTN.gbw) ****
             **** DENSITY FILE WAS UPDATED (TTN.scfp) ****
             **** ENERGY FILE WAS UPDATED (TTN.en.tmp) ****
             **** THE GBW FILE WAS UPDATED (TTN.gbw) ****
             **** DENSITY FILE WAS UPDATED (TTN.scfp) ****
----------------
ORBITAL ENERGIES
----------------

  NO   OCC          E(Eh)            E(eV) 
   0   2.0000     -89.000137     -2421.8169 
   1   2.0000     -89.000137     -2421.8168 
   2   2.0000     -89.000067     -2421.8149 
   3   2.0000     -89.000066     -2421.8149 
   4   2.0000     -10.336595      -281.2730 
   5   2.0000     -10.336594      -281.2730 
   6   2.0000     -10.336541      -281.2716 
   7   2.0000     -10.336528      -281.2712 
   8   2.0000     -10.314499      -280.6718 
   9   2.0000     -10.313996      -280.6581 
  10   2.0000     -10.310983      -280.5761 
  11   2.0000     -10.310966      -280.5757 
  12   2.0000     -10.310562      -280.5647 
  13   2.0000     -10.310560      -280.5646 
  14   2.0000     -10.294925      -280.1392 
  15   2.0000     -10.294924      -280.1391 
  16   2.0000     -10.294898      -280.1384 
  17   2.0000     -10.294890      -280.1382 
  18   2.0000     -10.290698      -280.0241 
  19   2.0000     -10.290695      -280.0240 
  20   2.0000     -10.290152      -280.0093 
  21   2.0000     -10.290152      -280.0093 
  22   2.0000      -8.093036      -220.2227 
  23   2.0000      -8.093034      -220.2227 
  24   2.0000      -8.092959      -220.2206 
  25   2.0000      -8.092958      -220.2206 
  26   2.0000      -6.047431      -164.5590 
  27   2.0000      -6.047428      -164.5589 
  28   2.0000      -6.047294      -164.5552 
  29   2.0000      -6.047291      -164.5552 
  30   2.0000      -6.043094      -164.4410 
  31   2.0000      -6.043093      -164.4409 
  32   2.0000      -6.043020      -164.4389 
  33   2.0000      -6.043019      -164.4389 
  34   2.0000      -6.036260      -164.2550 
  35   2.0000      -6.036259      -164.2550 
  36   2.0000      -6.036193      -164.2532 
  37   2.0000      -6.036192      -164.2531 
  38   2.0000      -1.053742       -28.6738 
  39   2.0000      -1.009803       -27.4781 
  40   2.0000      -0.994473       -27.0610 
  41   2.0000      -0.979845       -26.6629 
  42   2.0000      -0.930304       -25.3149 
  43   2.0000      -0.923324       -25.1249 
  44   2.0000      -0.918702       -24.9992 
  45   2.0000      -0.883857       -24.0510 
  46   2.0000      -0.879453       -23.9311 
  47   2.0000      -0.846092       -23.0233 
  48   2.0000      -0.844260       -22.9735 
  49   2.0000      -0.827175       -22.5086 
  50   2.0000      -0.779115       -21.2008 
  51   2.0000      -0.752683       -20.4815 
  52   2.0000      -0.746769       -20.3206 
  53   2.0000      -0.733019       -19.9465 
  54   2.0000      -0.701860       -19.0986 
  55   2.0000      -0.688855       -18.7447 
  56   2.0000      -0.673367       -18.3232 
  57   2.0000      -0.658207       -17.9107 
  58   2.0000      -0.621606       -16.9148 
  59   2.0000      -0.615152       -16.7391 
  60   2.0000      -0.581676       -15.8282 
  61   2.0000      -0.579226       -15.7615 
  62   2.0000      -0.562536       -15.3074 
  63   2.0000      -0.559533       -15.2257 
  64   2.0000      -0.557370       -15.1668 
  65   2.0000      -0.555230       -15.1086 
  66   2.0000      -0.534879       -14.5548 
  67   2.0000      -0.525546       -14.3008 
  68   2.0000      -0.519720       -14.1423 
  69   2.0000      -0.510873       -13.9016 
  70   2.0000      -0.491842       -13.3837 
  71   2.0000      -0.491047       -13.3621 
  72   2.0000      -0.488320       -13.2879 
  73   2.0000      -0.470158       -12.7937 
  74   2.0000      -0.469492       -12.7755 
  75   2.0000      -0.467575       -12.7234 
  76   2.0000      -0.460844       -12.5402 
  77   2.0000      -0.448619       -12.2075 
  78   2.0000      -0.441220       -12.0062 
  79   2.0000      -0.435873       -11.8607 
  80   2.0000      -0.431041       -11.7292 
  81   2.0000      -0.417502       -11.3608 
  82   2.0000      -0.414057       -11.2671 
  83   2.0000      -0.409326       -11.1383 
  84   2.0000      -0.378316       -10.2945 
  85   2.0000      -0.343406        -9.3446 
  86   2.0000      -0.336391        -9.1537 
  87   2.0000      -0.329383        -8.9630 
  88   2.0000      -0.326630        -8.8880 
  89   2.0000      -0.228097        -6.2068 
  90   0.0000      -0.043084        -1.1724 
  91   0.0000       0.006795         0.1849 
  92   0.0000       0.011511         0.3132 
  93   0.0000       0.027112         0.7378 
  94   0.0000       0.028104         0.7648 
  95   0.0000       0.070769         1.9257 
  96   0.0000       0.080608         2.1935 
  97   0.0000       0.084491         2.2991 
  98   0.0000       0.085667         2.3311 
  99   0.0000       0.098198         2.6721 
 100   0.0000       0.130290         3.5454 
 101   0.0000       0.141400         3.8477 
 102   0.0000       0.150941         4.1073 
 103   0.0000       0.154369         4.2006 
 104   0.0000       0.157863         4.2957 
 105   0.0000       0.161700         4.4001 
 106   0.0000       0.170574         4.6415 
 107   0.0000       0.173130         4.7111 
 108   0.0000       0.182773         4.9735 
 109   0.0000       0.183227         4.9859 
 110   0.0000       0.187770         5.1095 
 111   0.0000       0.200084         5.4446 
 112   0.0000       0.212575         5.7845 
 113   0.0000       0.213822         5.8184 
 114   0.0000       0.220380         5.9968 
 115   0.0000       0.227242         6.1836 
 116   0.0000       0.230837         6.2814 
 117   0.0000       0.232994         6.3401 
 118   0.0000       0.244691         6.6584 
 119   0.0000       0.245550         6.6817 
 120   0.0000       0.260833         7.0976 
 121   0.0000       0.266554         7.2533 
 122   0.0000       0.267355         7.2751 
 123   0.0000       0.276921         7.5354 
 124   0.0000       0.285118         7.7585 
 125   0.0000       0.285136         7.7589 
 126   0.0000       0.289113         7.8672 
 127   0.0000       0.292331         7.9547 
 128   0.0000       0.293519         7.9871 
 129   0.0000       0.297593         8.0979 
 130   0.0000       0.306220         8.3327 
 131   0.0000       0.308217         8.3870 
 132   0.0000       0.310736         8.4556 
 133   0.0000       0.311039         8.4638 
 134   0.0000       0.313456         8.5296 
 135   0.0000       0.325243         8.8503 
 136   0.0000       0.333009         9.0616 
 137   0.0000       0.333882         9.0854 
 138   0.0000       0.335588         9.1318 
 139   0.0000       0.336419         9.1544 
 140   0.0000       0.339124         9.2280 
 141   0.0000       0.348125         9.4729 
 142   0.0000       0.354402         9.6438 
 143   0.0000       0.357213         9.7203 
 144   0.0000       0.357434         9.7263 
 145   0.0000       0.365000         9.9322 
 146   0.0000       0.368678        10.0322 
 147   0.0000       0.374211        10.1828 
 148   0.0000       0.381992        10.3945 
 149   0.0000       0.383293        10.4299 
 150   0.0000       0.388290        10.5659 
 151   0.0000       0.392775        10.6880 
 152   0.0000       0.393714        10.7135 
 153   0.0000       0.401308        10.9201 
 154   0.0000       0.402489        10.9523 
 155   0.0000       0.404276        11.0009 
 156   0.0000       0.411535        11.1984 
 157   0.0000       0.413328        11.2472 
 158   0.0000       0.420783        11.4501 
 159   0.0000       0.423351        11.5200 
 160   0.0000       0.426950        11.6179 
 161   0.0000       0.431395        11.7389 
 162   0.0000       0.441934        12.0256 
 163   0.0000       0.442837        12.0502 
 164   0.0000       0.444828        12.1044 
 165   0.0000       0.450864        12.2686 
 166   0.0000       0.462959        12.5977 
 167   0.0000       0.466906        12.7052 
 168   0.0000       0.468361        12.7447 
 169   0.0000       0.468890        12.7591 
 170   0.0000       0.471239        12.8231 
 171   0.0000       0.482940        13.1415 
 172   0.0000       0.490952        13.3595 
 173   0.0000       0.497159        13.5284 
 174   0.0000       0.497653        13.5418 
 175   0.0000       0.501512        13.6468 
 176   0.0000       0.502122        13.6634 
 177   0.0000       0.503836        13.7101 
 178   0.0000       0.507857        13.8195 
 179   0.0000       0.521316        14.1857 
 180   0.0000       0.523408        14.2427 
 181   0.0000       0.527605        14.3569 
 182   0.0000       0.528715        14.3871 
 183   0.0000       0.544315        14.8116 
 184   0.0000       0.546759        14.8781 
 185   0.0000       0.550992        14.9933 
 186   0.0000       0.558241        15.1905 
 187   0.0000       0.559025        15.2118 
 188   0.0000       0.563914        15.3449 
 189   0.0000       0.567770        15.4498 
 190   0.0000       0.580307        15.7910 
 191   0.0000       0.582180        15.8419 
 192   0.0000       0.594098        16.1662 
 193   0.0000       0.597369        16.2552 
 194   0.0000       0.598719        16.2920 
 195   0.0000       0.602511        16.3952 
 196   0.0000       0.622588        16.9415 
 197   0.0000       0.626982        17.0610 
 198   0.0000       0.632851        17.2207 
 199   0.0000       0.633889        17.2490 
 200   0.0000       0.635091        17.2817 
 201   0.0000       0.647848        17.6289 
 202   0.0000       0.655301        17.8316 
 203   0.0000       0.659693        17.9511 
 204   0.0000       0.664915        18.0933 
 205   0.0000       0.668573        18.1928 
 206   0.0000       0.688258        18.7284 
 207   0.0000       0.690476        18.7888 
 208   0.0000       0.690865        18.7994 
 209   0.0000       0.695889        18.9361 
 210   0.0000       0.704660        19.1748 
 211   0.0000       0.705139        19.1878 
 212   0.0000       0.706727        19.2310 
 213   0.0000       0.711002        19.3473 
 214   0.0000       0.714542        19.4437 
 215   0.0000       0.721119        19.6227 
 216   0.0000       0.727558        19.7979 
 217   0.0000       0.732957        19.9448 
 218   0.0000       0.734628        19.9902 
 219   0.0000       0.737813        20.0769 
 220   0.0000       0.747967        20.3532 
 221   0.0000       0.749140        20.3851 
 222   0.0000       0.749399        20.3922 
 223   0.0000       0.759308        20.6618 
 224   0.0000       0.763307        20.7707 
 225   0.0000       0.770037        20.9538 
 226   0.0000       0.791331        21.5332 
 227   0.0000       0.792506        21.5652 
 228   0.0000       0.803079        21.8529 
 229   0.0000       0.810012        22.0415 
 230   0.0000       0.810551        22.0562 
 231   0.0000       0.810713        22.0606 
 232   0.0000       0.818689        22.2777 
 233   0.0000       0.824821        22.4445 
 234   0.0000       0.827547        22.5187 
 235   0.0000       0.843891        22.9634 
 236   0.0000       0.848365        23.0852 
 237   0.0000       0.851712        23.1763 
 238   0.0000       0.852579        23.1999 
 239   0.0000       0.856887        23.3171 
 240   0.0000       0.865860        23.5613 
 241   0.0000       0.869326        23.6556 
 242   0.0000       0.870326        23.6828 
 243   0.0000       0.871826        23.7236 
 244   0.0000       0.872873        23.7521 
 245   0.0000       0.874165        23.7872 
 246   0.0000       0.895586        24.3701 
 247   0.0000       0.911407        24.8007 
 248   0.0000       0.916970        24.9520 
 249   0.0000       0.921967        25.0880 
 250   0.0000       0.923149        25.1202 
 251   0.0000       0.936577        25.4856 
 252   0.0000       0.941538        25.6206 
 253   0.0000       0.947521        25.7834 
 254   0.0000       0.953208        25.9381 
 255   0.0000       0.953694        25.9513 
 256   0.0000       0.956913        26.0389 
 257   0.0000       0.973537        26.4913 
 258   0.0000       0.974731        26.5238 
 259   0.0000       0.978036        26.6137 
 260   0.0000       0.978938        26.6383 
 261   0.0000       0.981995        26.7215 
 262   0.0000       0.987938        26.8832 
 263   0.0000       0.989889        26.9363 
 264   0.0000       0.993502        27.0346 
 265   0.0000       1.022534        27.8246 
 266   0.0000       1.026770        27.9398 
 267   0.0000       1.042433        28.3660 
 268   0.0000       1.055920        28.7331 
 269   0.0000       1.057207        28.7681 
 270   0.0000       1.074484        29.2382 
 271   0.0000       1.080710        29.4076 
 272   0.0000       1.083746        29.4902 
 273   0.0000       1.088241        29.6125 
 274   0.0000       1.099844        29.9283 
 275   0.0000       1.108199        30.1556 
 276   0.0000       1.124138        30.5893 
 277   0.0000       1.130028        30.7496 
 278   0.0000       1.137958        30.9654 
 279   0.0000       1.139257        31.0008 
 280   0.0000       1.145722        31.1767 
 281   0.0000       1.149298        31.2740 
 282   0.0000       1.162396        31.6304 
 283   0.0000       1.195364        32.5275 
 284   0.0000       1.196759        32.5655 
 285   0.0000       1.206726        32.8367 
 286   0.0000       1.207535        32.8587 
 287   0.0000       1.217194        33.1215 
 288   0.0000       1.229371        33.4529 
 289   0.0000       1.231106        33.5001 
 290   0.0000       1.237116        33.6636 
 291   0.0000       1.247973        33.9591 
 292   0.0000       1.265984        34.4492 
 293   0.0000       1.268406        34.5151 
 294   0.0000       1.283717        34.9317 
 295   0.0000       1.296103        35.2688 
 296   0.0000       1.317737        35.8575 
 297   0.0000       1.319468        35.9045 
 298   0.0000       1.332389        36.2561 
 299   0.0000       1.333833        36.2954 
 300   0.0000       1.338503        36.4225 
 301   0.0000       1.339264        36.4432 
 302   0.0000       1.341997        36.5176 
 303   0.0000       1.351752        36.7830 
 304   0.0000       1.353883        36.8410 
 305   0.0000       1.354817        36.8664 
 306   0.0000       1.368540        37.2399 
 307   0.0000       1.375106        37.4185 
 308   0.0000       1.389430        37.8083 
 309   0.0000       1.391394        37.8618 
 310   0.0000       1.398482        38.0546 
 311   0.0000       1.404349        38.2143 
 312   0.0000       1.416134        38.5350 
 313   0.0000       1.417309        38.5669 
 314   0.0000       1.429378        38.8953 
 315   0.0000       1.436009        39.0758 
 316   0.0000       1.470926        40.0259 
 317   0.0000       1.476560        40.1792 
 318   0.0000       1.505341        40.9624 
 319   0.0000       1.509458        41.0744 
 320   0.0000       1.516432        41.2642 
 321   0.0000       1.516755        41.2730 
 322   0.0000       1.519216        41.3400 
 323   0.0000       1.523595        41.4591 
 324   0.0000       1.528608        41.5955 
 325   0.0000       1.535228        41.7757 
 326   0.0000       1.542126        41.9634 
 327   0.0000       1.547740        42.1161 
 328   0.0000       1.553314        42.2678 
 329   0.0000       1.555190        42.3189 
 330   0.0000       1.567084        42.6425 
 331   0.0000       1.568326        42.6763 
 332   0.0000       1.568854        42.6907 
 333   0.0000       1.573933        42.8289 
 334   0.0000       1.587384        43.1949 
 335   0.0000       1.593634        43.3650 
 336   0.0000       1.595802        43.4240 
 337   0.0000       1.595996        43.4293 
 338   0.0000       1.606065        43.7032 
 339   0.0000       1.607185        43.7337 
 340   0.0000       1.607362        43.7385 
 341   0.0000       1.609844        43.8061 
 342   0.0000       1.624771        44.2123 
 343   0.0000       1.629099        44.3300 
 344   0.0000       1.638887        44.5964 
 345   0.0000       1.641782        44.6751 
 346   0.0000       1.649560        44.8868 
 347   0.0000       1.652672        44.9715 
 348   0.0000       1.656064        45.0638 
 349   0.0000       1.658567        45.1319 
 350   0.0000       1.664777        45.3009 
 351   0.0000       1.667802        45.3832 
 352   0.0000       1.675820        45.6014 
 353   0.0000       1.681691        45.7611 
 354   0.0000       1.689511        45.9739 
 355   0.0000       1.693434        46.0807 
 356   0.0000       1.702819        46.3360 
 357   0.0000       1.708454        46.4894 
 358   0.0000       1.713567        46.6285 
 359   0.0000       1.716958        46.7208 
 360   0.0000       1.724733        46.9324 
 361   0.0000       1.737823        47.2886 
 362   0.0000       1.747963        47.5645 
 363   0.0000       1.748603        47.5819 
 364   0.0000       1.756557        47.7983 
 365   0.0000       1.758565        47.8530 
 366   0.0000       1.762514        47.9604 
 367   0.0000       1.763950        47.9995 
 368   0.0000       1.767149        48.0866 
 369   0.0000       1.768263        48.1169 
 370   0.0000       1.782058        48.4923 
 371   0.0000       1.783281        48.5255 
 372   0.0000       1.791166        48.7401 
 373   0.0000       1.796227        48.8778 
 374   0.0000       1.798443        48.9381 
 375   0.0000       1.804691        49.1081 
 376   0.0000       1.809280        49.2330 
 377   0.0000       1.842455        50.1358 
 378   0.0000       1.855536        50.4917 
 379   0.0000       1.870731        50.9052 
 380   0.0000       1.876819        51.0708 
 381   0.0000       1.880005        51.1575 
 382   0.0000       1.893490        51.5245 
 383   0.0000       1.898310        51.6556 
 384   0.0000       1.901983        51.7556 
 385   0.0000       1.901997        51.7560 
 386   0.0000       1.912360        52.0380 
 387   0.0000       1.925515        52.3959 
 388   0.0000       1.927539        52.4510 
 389   0.0000       1.931791        52.5667 
 390   0.0000       1.940322        52.7988 
 391   0.0000       1.945347        52.9356 
 392   0.0000       1.952331        53.1256 
 393   0.0000       1.965577        53.4861 
 394   0.0000       1.972566        53.6763 
 395   0.0000       1.981799        53.9275 
 396   0.0000       1.981831        53.9284 
 397   0.0000       1.992502        54.2187 
 398   0.0000       1.996820        54.3362 
 399   0.0000       2.006115        54.5892 
 400   0.0000       2.008739        54.6606 
 401   0.0000       2.011861        54.7455 
 402   0.0000       2.015182        54.8359 
 403   0.0000       2.019362        54.9496 
 404   0.0000       2.029721        55.2315 
 405   0.0000       2.053943        55.8906 
 406   0.0000       2.058729        56.0209 
 407   0.0000       2.069569        56.3158 
 408   0.0000       2.074215        56.4423 
 409   0.0000       2.092544        56.9410 
 410   0.0000       2.093067        56.9552 
 411   0.0000       2.101350        57.1807 
 412   0.0000       2.104273        57.2602 
 413   0.0000       2.111712        57.4626 
 414   0.0000       2.123167        57.7743 
 415   0.0000       2.124563        57.8123 
 416   0.0000       2.130171        57.9649 
 417   0.0000       2.152750        58.5793 
 418   0.0000       2.157294        58.7030 
 419   0.0000       2.157370        58.7050 
 420   0.0000       2.164499        58.8990 
 421   0.0000       2.164598        58.9017 
 422   0.0000       2.168368        59.0043 
 423   0.0000       2.195000        59.7290 
 424   0.0000       2.207070        60.0574 
 425   0.0000       2.208366        60.0927 
 426   0.0000       2.213466        60.2315 
 427   0.0000       2.234905        60.8148 
 428   0.0000       2.237528        60.8862 
 429   0.0000       2.242950        61.0338 
 430   0.0000       2.244235        61.0687 
 431   0.0000       2.262081        61.5544 
 432   0.0000       2.278723        62.0072 
 433   0.0000       2.295426        62.4617 
 434   0.0000       2.305435        62.7341 
 435   0.0000       2.310579        62.8740 
 436   0.0000       2.312159        62.9170 
 437   0.0000       2.315812        63.0165 
 438   0.0000       2.324909        63.2640 
 439   0.0000       2.333069        63.4860 
 440   0.0000       2.334324        63.5202 
 441   0.0000       2.341771        63.7228 
 442   0.0000       2.350077        63.9489 
 443   0.0000       2.358416        64.1758 
 444   0.0000       2.380199        64.7685 
 445   0.0000       2.396778        65.2196 
 446   0.0000       2.399413        65.2914 
 447   0.0000       2.419004        65.8244 
 448   0.0000       2.430181        66.1286 
 449   0.0000       2.437110        66.3171 
 450   0.0000       2.457381        66.8687 
 451   0.0000       2.471861        67.2628 
 452   0.0000       2.474315        67.3295 
 453   0.0000       2.476778        67.3965 
 454   0.0000       2.497617        67.9636 
 455   0.0000       2.524802        68.7034 
 456   0.0000       2.539496        69.1032 
 457   0.0000       2.539572        69.1053 
 458   0.0000       2.540757        69.1375 
 459   0.0000       2.574084        70.0444 
 460   0.0000       2.575835        70.0920 
 461   0.0000       2.631396        71.6039 
 462   0.0000       2.639281        71.8185 
 463   0.0000       2.640502        71.8517 
 464   0.0000       2.641630        71.8824 
 465   0.0000       2.660491        72.3957 
 466   0.0000       2.670014        72.6548 
 467   0.0000       2.673484        72.7492 
 468   0.0000       2.694719        73.3270 
 469   0.0000       2.697012        73.3894 
 470   0.0000       2.701507        73.5117 
 471   0.0000       2.705654        73.6246 
 472   0.0000       2.719358        73.9975 
 473   0.0000       2.721951        74.0681 
 474   0.0000       2.741750        74.6068 
 475   0.0000       2.754151        74.9443 
 476   0.0000       2.762140        75.1617 
 477   0.0000       2.762318        75.1665 
 478   0.0000       2.774698        75.5034 
 479   0.0000       2.780434        75.6595 
 480   0.0000       2.781295        75.6829 
 481   0.0000       2.787939        75.8637 
 482   0.0000       2.802298        76.2544 
 483   0.0000       2.815709        76.6193 
 484   0.0000       2.821671        76.7816 
 485   0.0000       2.826820        76.9217 
 486   0.0000       2.832339        77.0719 
 487   0.0000       2.833515        77.1039 
 488   0.0000       2.841498        77.3211 
 489   0.0000       2.842256        77.3417 
 490   0.0000       2.860612        77.8412 
 491   0.0000       2.864679        77.9519 
 492   0.0000       2.884355        78.4873 
 493   0.0000       2.889526        78.6280 
 494   0.0000       2.891322        78.6769 
 495   0.0000       2.898694        78.8775 
 496   0.0000       2.900423        78.9245 
 497   0.0000       2.900580        78.9288 
 498   0.0000       2.908358        79.1404 
 499   0.0000       2.917102        79.3784 
 500   0.0000       2.944505        80.1240 
 501   0.0000       2.946353        80.1744 
 502   0.0000       2.947448        80.2041 
 503   0.0000       2.955409        80.4208 
 504   0.0000       2.962471        80.6129 
 505   0.0000       2.965641        80.6992 
 506   0.0000       2.982789        81.1658 
 507   0.0000       2.988575        81.3233 
 508   0.0000       2.993324        81.4525 
 509   0.0000       2.997081        81.5547 
 510   0.0000       2.999020        81.6075 
 511   0.0000       3.000523        81.6484 
 512   0.0000       3.003165        81.7203 
 513   0.0000       3.014627        82.0322 
 514   0.0000       3.025961        82.3406 
 515   0.0000       3.035203        82.5921 
 516   0.0000       3.042787        82.7985 
 517   0.0000       3.054647        83.1212 
 518   0.0000       3.057415        83.1965 
 519   0.0000       3.058450        83.2247 
 520   0.0000       3.073755        83.6411 
 521   0.0000       3.100972        84.3817 
 522   0.0000       3.105539        84.5060 
 523   0.0000       3.107413        84.5570 
 524   0.0000       3.107689        84.5645 
 525   0.0000       3.111443        84.6667 
 526   0.0000       3.114022        84.7368 
 527   0.0000       3.120325        84.9084 
 528   0.0000       3.126630        85.0799 
 529   0.0000       3.127782        85.1113 
 530   0.0000       3.136854        85.3581 
 531   0.0000       3.151620        85.7599 
 532   0.0000       3.159452        85.9731 
 533   0.0000       3.164228        86.1030 
 534   0.0000       3.170386        86.2706 
 535   0.0000       3.176172        86.4280 
 536   0.0000       3.182891        86.6109 
 537   0.0000       3.184801        86.6629 
 538   0.0000       3.190613        86.8210 
 539   0.0000       3.197134        86.9984 
 540   0.0000       3.207296        87.2749 
 541   0.0000       3.233472        87.9872 
 542   0.0000       3.234208        88.0073 
 543   0.0000       3.239821        88.1600 
 544   0.0000       3.246911        88.3529 
 545   0.0000       3.255994        88.6001 
 546   0.0000       3.265041        88.8463 
 547   0.0000       3.266816        88.8946 
 548   0.0000       3.272732        89.0556 
 549   0.0000       3.278560        89.2142 
 550   0.0000       3.283762        89.3557 
 551   0.0000       3.292558        89.5951 
 552   0.0000       3.307203        89.9936 
 553   0.0000       3.325992        90.5049 
 554   0.0000       3.331278        90.6487 
 555   0.0000       3.334331        90.7318 
 556   0.0000       3.345070        91.0240 
 557   0.0000       3.349357        91.1406 
 558   0.0000       3.351360        91.1951 
 559   0.0000       3.353469        91.2525 
 560   0.0000       3.366214        91.5993 
 561   0.0000       3.371153        91.7337 
 562   0.0000       3.373720        91.8036 
 563   0.0000       3.377707        91.9121 
 564   0.0000       3.383392        92.0668 
 565   0.0000       3.388655        92.2100 
 566   0.0000       3.415628        92.9440 
 567   0.0000       3.419101        93.0385 
 568   0.0000       3.426120        93.2295 
 569   0.0000       3.428557        93.2958 
 570   0.0000       3.439128        93.5834 
 571   0.0000       3.454151        93.9922 
 572   0.0000       3.455511        94.0292 
 573   0.0000       3.459022        94.1248 
 574   0.0000       3.460303        94.1596 
 575   0.0000       3.463284        94.2407 
 576   0.0000       3.464529        94.2746 
 577   0.0000       3.491082        94.9972 
 578   0.0000       3.493043        95.0505 
 579   0.0000       3.501172        95.2717 
 580   0.0000       3.506532        95.4176 
 581   0.0000       3.525516        95.9342 
 582   0.0000       3.536742        96.2396 
 583   0.0000       3.547046        96.5200 
 584   0.0000       3.551068        96.6295 
 585   0.0000       3.554140        96.7131 
 586   0.0000       3.557156        96.7951 
 587   0.0000       3.570502        97.1583 
 588   0.0000       3.575025        97.2814 
 589   0.0000       3.596712        97.8715 
 590   0.0000       3.597080        97.8815 
 591   0.0000       3.606297        98.1323 
 592   0.0000       3.622327        98.5685 
 593   0.0000       3.627826        98.7182 
 594   0.0000       3.636056        98.9421 
 595   0.0000       3.639405        99.0332 
 596   0.0000       3.639425        99.0338 
 597   0.0000       3.640839        99.0723 
 598   0.0000       3.642150        99.1079 
 599   0.0000       3.653024        99.4038 
 600   0.0000       3.655568        99.4731 
 601   0.0000       3.675768       100.0227 
 602   0.0000       3.700587       100.6981 
 603   0.0000       3.723207       101.3136 
 604   0.0000       3.726064       101.3914 
 605   0.0000       3.730438       101.5104 
 606   0.0000       3.755135       102.1824 
 607   0.0000       3.774134       102.6994 
 608   0.0000       3.777662       102.7954 
 609   0.0000       3.782406       102.9245 
 610   0.0000       3.782622       102.9304 
 611   0.0000       3.792474       103.1985 
 612   0.0000       3.808674       103.6393 
 613   0.0000       3.821216       103.9806 
 614   0.0000       3.836868       104.4065 
 615   0.0000       3.839445       104.4766 
 616   0.0000       3.843986       104.6002 
 617   0.0000       3.871885       105.3593 
 618   0.0000       3.894939       105.9867 
 619   0.0000       3.928368       106.8963 
 620   0.0000       3.960554       107.7722 
 621   0.0000       3.975801       108.1871 
 622   0.0000       3.981194       108.3338 
 623   0.0000       3.983340       108.3922 
 624   0.0000       4.009710       109.1098 
 625   0.0000       4.019970       109.3890 
 626   0.0000       4.025400       109.5367 
 627   0.0000       4.032924       109.7414 
 628   0.0000       4.041667       109.9794 
 629   0.0000       4.045313       110.0786 
 630   0.0000       4.046679       110.1157 
 631   0.0000       4.052941       110.2861 
 632   0.0000       4.089093       111.2699 
 633   0.0000       4.111548       111.8809 
 634   0.0000       4.121247       112.1448 
 635   0.0000       4.139297       112.6360 
 636   0.0000       4.154593       113.0522 
 637   0.0000       4.156862       113.1140 
 638   0.0000       4.171365       113.5086 
 639   0.0000       4.184593       113.8686 
 640   0.0000       4.184951       113.8783 
 641   0.0000       4.202849       114.3653 
 642   0.0000       4.235960       115.2663 
 643   0.0000       4.246672       115.5578 
 644   0.0000       4.255363       115.7943 
 645   0.0000       4.257238       115.8453 
 646   0.0000       4.265116       116.0597 
 647   0.0000       4.265507       116.0703 
 648   0.0000       4.267748       116.1313 
 649   0.0000       4.297702       116.9464 
 650   0.0000       4.314250       117.3967 
 651   0.0000       4.315148       117.4212 
 652   0.0000       4.319842       117.5489 
 653   0.0000       4.321304       117.5887 
 654   0.0000       4.340787       118.1188 
 655   0.0000       4.345360       118.2433 
 656   0.0000       4.354713       118.4978 
 657   0.0000       4.360972       118.6681 
 658   0.0000       4.366691       118.8237 
 659   0.0000       4.391194       119.4905 
 660   0.0000       4.393627       119.5567 
 661   0.0000       4.414866       120.1346 
 662   0.0000       4.417578       120.2084 
 663   0.0000       4.448777       121.0574 
 664   0.0000       4.474287       121.7515 
 665   0.0000       4.484336       122.0250 
 666   0.0000       4.527531       123.2004 
[...]
      px      :     0.030150
      py      :     0.015895
  4 C s       :     2.754176  s :     2.754176
      pz      :     0.886046  p :     2.928475
      px      :     1.052785
      py      :     0.989644
      dz2     :     0.025345  d :     0.384914
      dxz     :     0.081129
      dyz     :     0.012811
      dx2y2   :     0.161219
      dxy     :     0.104410
      f0      :     0.003194  f :     0.042834
      f+1     :     0.004377
      f-1     :     0.003109
      f+2     :     0.001585
      f-2     :     0.007177
      f+3     :     0.015400
      f-3     :     0.007992
  5 H s       :     0.786711  s :     0.786711
      pz      :     0.012978  p :     0.059108
      px      :     0.027839
      py      :     0.018292
  6 C s       :     2.684341  s :     2.684341
      pz      :     0.864155  p :     2.842542
      px      :     0.993372
      py      :     0.985015
      dz2     :     0.033660  d :     0.518230
      dxz     :     0.082175
      dyz     :     0.072359
      dx2y2   :     0.163656
      dxy     :     0.166380
      f0      :     0.004075  f :     0.058029
      f+1     :     0.004334
      f-1     :     0.004163
      f+2     :     0.007131
      f-2     :     0.007199
      f+3     :     0.021439
      f-3     :     0.009688
  7 H s       :     0.786676  s :     0.786676
      pz      :     0.013572  p :     0.059783
      px      :     0.010927
      py      :     0.035284
  8 C s       :     2.684300  s :     2.684300
      pz      :     0.864266  p :     2.842527
      px      :     0.993398
      py      :     0.984863
      dz2     :     0.033715  d :     0.518298
      dxz     :     0.083298
      dyz     :     0.071142
      dx2y2   :     0.163917
      dxy     :     0.166226
      f0      :     0.004079  f :     0.058045
      f+1     :     0.004366
      f-1     :     0.004122
      f+2     :     0.007345
      f-2     :     0.006994
      f+3     :     0.021597
      f-3     :     0.009542
  9 H s       :     0.786793  s :     0.786793
      pz      :     0.013573  p :     0.059797
      px      :     0.010740
      py      :     0.035484
 10 C s       :     2.748865  s :     2.748865
      pz      :     0.913469  p :     2.953685
      px      :     1.036286
      py      :     1.003931
      dz2     :     0.038361  d :     0.554913
      dxz     :     0.084035
      dyz     :     0.096688
      dx2y2   :     0.201519
      dxy     :     0.134311
      f0      :     0.004342  f :     0.056153
      f+1     :     0.004385
      f-1     :     0.004274
      f+2     :     0.006778
      f-2     :     0.006966
      f+3     :     0.019703
      f-3     :     0.009704
 11 C s       :     2.748831  s :     2.748831
      pz      :     0.913327  p :     2.953697
      px      :     1.036998
      py      :     1.003372
      dz2     :     0.038433  d :     0.555042
      dxz     :     0.086270
      dyz     :     0.094484
      dx2y2   :     0.197599
      dxy     :     0.138255
      f0      :     0.004355  f :     0.056154
      f+1     :     0.004413
      f-1     :     0.004222
      f+2     :     0.006572
      f-2     :     0.007201
      f+3     :     0.019130
      f-3     :     0.010261
 12 C s       :     2.673030  s :     2.673030
      pz      :     0.849296  p :     2.823555
      px      :     0.983855
      py      :     0.990404
      dz2     :     0.036944  d :     0.550184
      dxz     :     0.088157
      dyz     :     0.077804
      dx2y2   :     0.168165
      dxy     :     0.179114
      f0      :     0.004388  f :     0.064465
      f+1     :     0.004480
      f-1     :     0.004492
      f+2     :     0.007543
      f-2     :     0.008630
      f+3     :     0.024570
      f-3     :     0.010361
 13 C s       :     2.673023  s :     2.673023
      pz      :     0.849302  p :     2.823558
      px      :     0.983848
      py      :     0.990408
      dz2     :     0.036944  d :     0.550182
      dxz     :     0.088143
      dyz     :     0.077809
      dx2y2   :     0.168164
      dxy     :     0.179122
      f0      :     0.004389  f :     0.064467
      f+1     :     0.004480
      f-1     :     0.004492
      f+2     :     0.007542
      f-2     :     0.008630
      f+3     :     0.024572
      f-3     :     0.010362
 14 C s       :     2.748834  s :     2.748834
      pz      :     0.913360  p :     2.953711
      px      :     1.036991
      py      :     1.003360
      dz2     :     0.038434  d :     0.555016
      dxz     :     0.086266
      dyz     :     0.094477
      dx2y2   :     0.197593
      dxy     :     0.138246
      f0      :     0.004355  f :     0.056151
      f+1     :     0.004413
      f-1     :     0.004222
      f+2     :     0.006572
      f-2     :     0.007201
      f+3     :     0.019129
      f-3     :     0.010260
 15 C s       :     2.748852  s :     2.748852
      pz      :     0.913435  p :     2.953695
      px      :     1.036293
      py      :     1.003967
      dz2     :     0.038355  d :     0.554972
      dxz     :     0.084041
      dyz     :     0.096708
      dx2y2   :     0.201544
      dxy     :     0.134324
      f0      :     0.004342  f :     0.056159
      f+1     :     0.004385
      f-1     :     0.004274
      f+2     :     0.006781
      f-2     :     0.006966
      f+3     :     0.019706
      f-3     :     0.009705
 16 C s       :     2.684306  s :     2.684306
      pz      :     0.864262  p :     2.842526
      px      :     0.993403
      py      :     0.984860
      dz2     :     0.033717  d :     0.518297
      dxz     :     0.083304
      dyz     :     0.071143
      dx2y2   :     0.163915
      dxy     :     0.166219
      f0      :     0.004079  f :     0.058044
      f+1     :     0.004366
      f-1     :     0.004122
      f+2     :     0.007345
      f-2     :     0.006994
      f+3     :     0.021596
      f-3     :     0.009542
 17 C s       :     2.684346  s :     2.684346
      pz      :     0.864181  p :     2.842552
      px      :     0.993359
      py      :     0.985011
      dz2     :     0.033663  d :     0.518215
      dxz     :     0.082168
      dyz     :     0.072359
      dx2y2   :     0.163648
      dxy     :     0.166377
      f0      :     0.004075  f :     0.058027
      f+1     :     0.004334
      f-1     :     0.004163
      f+2     :     0.007131
      f-2     :     0.007200
      f+3     :     0.021438
      f-3     :     0.009687
 18 C s       :     2.754187  s :     2.754187
      pz      :     0.886052  p :     2.928472
      px      :     1.052779
      py      :     0.989641
      dz2     :     0.025346  d :     0.384913
      dxz     :     0.081127
      dyz     :     0.012816
      dx2y2   :     0.161221
      dxy     :     0.104404
      f0      :     0.003195  f :     0.042834
      f+1     :     0.004377
      f-1     :     0.003109
      f+2     :     0.001585
      f-2     :     0.007177
      f+3     :     0.015400
      f-3     :     0.007991
 19 C s       :     2.763292  s :     2.763292
      pz      :     0.875609  p :     2.941033
      px      :     1.032985
      py      :     1.032439
      dz2     :     0.025511  d :     0.387726
      dxz     :     0.030326
      dyz     :     0.062085
      dx2y2   :     0.118568
      dxy     :     0.151235
      f0      :     0.003183  f :     0.043574
      f+1     :     0.003651
      f-1     :     0.003874
      f+2     :     0.006313
      f-2     :     0.002739
      f+3     :     0.015656
      f-3     :     0.008158
 20 H s       :     0.786789  s :     0.786789
      pz      :     0.013571  p :     0.059789
      px      :     0.010737
      py      :     0.035481
 21 C s       :     2.754197  s :     2.754197
      pz      :     0.885915  p :     2.928452
      px      :     1.045967
      py      :     0.996570
      dz2     :     0.025380  d :     0.384782
      dxz     :     0.081137
      dyz     :     0.012643
      dx2y2   :     0.165231
      dxy     :     0.100391
      f0      :     0.003190  f :     0.042837
      f+1     :     0.004356
      f-1     :     0.003144
      f+2     :     0.001694
      f-2     :     0.007047
      f+3     :     0.015009
      f-3     :     0.008397
 22 C s       :     2.763258  s :     2.763258
      pz      :     0.875252  p :     2.941375
      px      :     1.024617
      py      :     1.041505
      dz2     :     0.025197  d :     0.387708
      dxz     :     0.024812
      dyz     :     0.067835
      dx2y2   :     0.132020
      dxy     :     0.137843
      f0      :     0.003194  f :     0.043581
      f+1     :     0.003485
      f-1     :     0.004033
      f+2     :     0.005064
      f-2     :     0.003965
      f+3     :     0.015706
      f-3     :     0.008135
 23 H s       :     0.786671  s :     0.786671
      pz      :     0.013571  p :     0.059777
      px      :     0.010925
      py      :     0.035282
 24 H s       :     0.786711  s :     0.786711
      pz      :     0.012977  p :     0.059108
      px      :     0.027840
      py      :     0.018291
 25 H s       :     0.786565  s :     0.786565
      pz      :     0.013037  p :     0.059080
      px      :     0.030149
      py      :     0.015895
 26 S s       :     5.329112  s :     5.329112
      pz      :     3.729547  p :     9.928325
      px      :     3.050508
      py      :     3.148270
      dz2     :     0.033154  d :     0.287714
      dxz     :     0.049996
      dyz     :     0.043106
      dx2y2   :     0.114209
      dxy     :     0.047249
      f0      :     0.004615  f :     0.044058
      f+1     :     0.003611
      f-1     :     0.003663
      f+2     :     0.008302
      f-2     :     0.000240
      f+3     :     0.013748
      f-3     :     0.009880
 27 S s       :     5.329088  s :     5.329088
      pz      :     3.728765  p :     9.928484
      px      :     3.015737
      py      :     3.183982
      dz2     :     0.033057  d :     0.287637
      dxz     :     0.051217
      dyz     :     0.042048
      dx2y2   :     0.116264
      dxy     :     0.045051
      f0      :     0.004629  f :     0.044013
      f+1     :     0.003724
      f-1     :     0.003520
      f+2     :     0.008017
      f-2     :     0.000532
      f+3     :     0.013698
      f-3     :     0.009893
 28 S s       :     5.329059  s :     5.329059
      pz      :     3.728753  p :     9.928444
      px      :     3.015717
      py      :     3.183974
      dz2     :     0.033057  d :     0.287657
      dxz     :     0.051225
      dyz     :     0.042047
      dx2y2   :     0.116276
      dxy     :     0.045052
      f0      :     0.004629  f :     0.044018
      f+1     :     0.003724
      f-1     :     0.003521
      f+2     :     0.008018
      f-2     :     0.000531
      f+3     :     0.013701
      f-3     :     0.009895
 29 S s       :     5.329026  s :     5.329026
      pz      :     3.729540  p :     9.928278
      px      :     3.050503
      py      :     3.148236
      dz2     :     0.033151  d :     0.287763
      dxz     :     0.050001
      dyz     :     0.043115
      dx2y2   :     0.114228
      dxy     :     0.047267
      f0      :     0.004617  f :     0.044068
      f+1     :     0.003611
      f-1     :     0.003662
      f+2     :     0.008303
      f-2     :     0.000239
      f+3     :     0.013753
      f-3     :     0.009883


                      *****************************
                      * MAYER POPULATION ANALYSIS *
                      *****************************

  NA   - Mulliken gross atomic population
  ZA   - Total nuclear charge
  QA   - Mulliken gross atomic charge
  VA   - Mayer's total valence
  BVA  - Mayer's bonded valence
  FA   - Mayer's free valence

  ATOM       NA         ZA         QA         VA         BVA        FA
  0 C      6.1478     6.0000    -0.1478     3.9189     3.9189     0.0000
  1 C      6.1420     6.0000    -0.1420     3.9215     3.9215     0.0000
  2 C      6.2480     6.0000    -0.2480     3.8991     3.8991     0.0000
  3 H      0.8428     1.0000     0.1572     0.9652     0.9652    -0.0000
  4 C      6.2572     6.0000    -0.2572     3.8992     3.8992    -0.0000
  5 H      0.8455     1.0000     0.1545     0.9662     0.9662     0.0000
  6 C      5.9183     6.0000     0.0817     3.7237     3.7237    -0.0000
  7 H      0.8438     1.0000     0.1562     0.9657     0.9657     0.0000
  8 C      5.9179     6.0000     0.0821     3.7145     3.7145     0.0000
  9 H      0.8422     1.0000     0.1578     0.9648     0.9648     0.0000
 10 C      6.0133     6.0000    -0.0133     3.8334     3.8334    -0.0000
 11 C      6.0149     6.0000    -0.0149     3.8338     3.8338     0.0000
 12 C      5.9499     6.0000     0.0501     3.6466     3.6466     0.0000
 13 C      5.9500     6.0000     0.0500     3.6465     3.6465    -0.0000
 14 C      6.0150     6.0000    -0.0150     3.8339     3.8339     0.0000
 15 C      6.0132     6.0000    -0.0132     3.8333     3.8333    -0.0000
 16 C      5.9179     6.0000     0.0821     3.7146     3.7146    -0.0000
 17 C      5.9183     6.0000     0.0817     3.7236     3.7236     0.0000
 18 C      6.2572     6.0000    -0.2572     3.8992     3.8992    -0.0000
 19 C      6.1420     6.0000    -0.1420     3.9216     3.9216    -0.0000
 20 H      0.8422     1.0000     0.1578     0.9648     0.9648    -0.0000
 21 C      6.2480     6.0000    -0.2480     3.8991     3.8991    -0.0000
 22 C      6.1479     6.0000    -0.1479     3.9190     3.9190    -0.0000
 23 H      0.8438     1.0000     0.1562     0.9657     0.9657    -0.0000
 24 H      0.8455     1.0000     0.1545     0.9662     0.9662    -0.0000
 25 H      0.8428     1.0000     0.1572     0.9652     0.9652     0.0000
 26 S     16.0072    16.0000    -0.0072     2.4188     2.4188     0.0000
 27 S     16.0091    16.0000    -0.0091     2.4172     2.4172     0.0000
 28 S     16.0091    16.0000    -0.0091     2.4172     2.4172     0.0000
 29 S     16.0072    16.0000    -0.0072     2.4190     2.4190    -0.0000

  Mayer bond orders larger than 0.100000
B(  0-C ,  1-C ) :   1.1660 B(  0-C ,  2-C ) :   1.6506 B(  0-C ,  3-H ) :   0.9815 
B(  1-C ,  4-C ) :   1.6523 B(  1-C ,  5-H ) :   0.9834 B(  2-C ,  6-C ) :   1.1440 
B(  2-C ,  7-H ) :   0.9678 B(  4-C ,  8-C ) :   1.1389 B(  4-C ,  9-H ) :   0.9676 
B(  6-C ,  8-C ) :   1.2253 B(  6-C , 10-C ) :   1.3224 B(  8-C , 11-C ) :   1.3247 
B( 10-C , 12-C ) :   1.2890 B( 10-C , 26-S ) :   1.2126 B( 11-C , 13-C ) :   1.2916 
B( 11-C , 28-S ) :   1.2110 B( 12-C , 13-C ) :   1.0565 B( 12-C , 14-C ) :   1.2917 
B( 13-C , 15-C ) :   1.2889 B( 14-C , 16-C ) :   1.3247 B( 14-C , 27-S ) :   1.2110 
B( 15-C , 17-C ) :   1.3224 B( 15-C , 29-S ) :   1.2127 B( 16-C , 17-C ) :   1.2253 
B( 16-C , 18-C ) :   1.1389 B( 17-C , 21-C ) :   1.1439 B( 18-C , 19-C ) :   1.6524 
B( 18-C , 20-H ) :   0.9676 B( 19-C , 22-C ) :   1.1659 B( 19-C , 24-H ) :   0.9834 
B( 21-C , 22-C ) :   1.6507 B( 21-C , 23-H ) :   0.9677 B( 22-C , 25-H ) :   0.9815 
B( 26-S , 27-S ) :   1.0878 B( 28-S , 29-S ) :   1.0879 

-------
TIMINGS
-------

Total SCF time: 0 days 0 hours 15 min 30 sec 

Total time                  ....     930.548 sec
Sum of individual times     ....     929.741 sec  ( 99.9%)

Fock matrix formation       ....     927.050 sec  ( 99.6%)
  XC integration            ....       4.511 sec  (  0.5% of F)
    Basis function eval.    ....       0.720 sec  ( 16.0% of XC)
    Density eval.           ....       1.130 sec  ( 25.0% of XC)
    XC-Functional eval.     ....       0.304 sec  (  6.7% of XC)
    XC-Potential eval.      ....       2.184 sec  ( 48.4% of XC)
Diagonalization             ....       0.144 sec  (  0.0%)
Density matrix formation    ....       0.034 sec  (  0.0%)
Population analysis         ....       0.084 sec  (  0.0%)
Initial guess               ....       0.165 sec  (  0.0%)
Orbital Transformation      ....       0.000 sec  (  0.0%)
Orbital Orthonormalization  ....       0.137 sec  (  0.0%)
DIIS solution               ....       0.035 sec  (  0.0%)
SOSCF solution              ....       0.360 sec  (  0.0%)
Grid generation             ....       1.870 sec  (  0.2%)


-------------------------------------------------------------------------------
                          DFT DISPERSION CORRECTION                            
                                                                               
                              DFTD3 V3.1  Rev 1                                
                              USING zero damping                               
-------------------------------------------------------------------------------
The omegaB97X-D3 functional is recognized. Fit by Chai et al.
Active option DFTDOPT                   ...         3   

molecular C6(AA) [au] = 21796.051102 


            DFT-D V3
 parameters
 s6 scaling factor         :     1.0000 
 rs6 scaling factor        :     1.2810 
 s8 scaling factor         :     1.0000 
 rs8 scaling factor        :     1.0940 
 Damping factor alpha6     :    14.0000 
 Damping factor alpha8     :    16.0000 
 ad hoc parameters k1-k3   :    16.0000     1.3333    -4.0000 

 Edisp/kcal,au: -9.792551897195  -0.015605423117 
 E6   /kcal   :  -4.504283411 
 E8   /kcal   :  -5.288268487 
 % E8         :  54.002966154 

-------------------------   ----------------
Dispersion correction           -0.015605423
-------------------------   ----------------


-------------------------   --------------------
FINAL SINGLE POINT ENERGY     -2283.597950732448
-------------------------   --------------------

                                *** OPTIMIZATION RUN DONE ***

                            ***************************************
                            *     ORCA property calculations      *
                            ***************************************

                                    ---------------------
                                    Active property flags
                                    ---------------------
   (+) Dipole Moment


------------------------------------------------------------------------------
                       ORCA ELECTRIC PROPERTIES CALCULATION
------------------------------------------------------------------------------

Dipole Moment Calculation                       ... on
Quadrupole Moment Calculation                   ... off
Polarizability Calculation                      ... off
GBWName                                         ... TTN.gbw
Electron density file                           ... TTN.scfp
The origin for moment calculation is the CENTER OF MASS  = (-8.355472,  1.143559  0.438898)

-------------
DIPOLE MOMENT
-------------
                                X             Y             Z
Electronic contribution:     -0.00002       0.00012      -0.00458
Nuclear contribution   :     -0.00000      -0.00048       0.00508
                        -----------------------------------------
Total Dipole Moment    :     -0.00003      -0.00036       0.00050
                        -----------------------------------------
Magnitude (a.u.)       :      0.00062
Magnitude (Debye)      :      0.00158



--------------------
Rotational spectrum 
--------------------
 
Rotational constants in cm-1:     0.010865     0.006832     0.004195 
Rotational constants in MHz :   325.723452   204.829408   125.751410 

 Dipole components along the rotational axes: 
x,y,z [a.u.] :    -0.000035    -0.000385     0.000486 
x,y,z [Debye]:    -0.000089    -0.000977     0.001236 

 

Timings for individual modules:

Sum of individual times         ...    18749.486 sec (= 312.491 min)
GTO integral calculation        ...       13.382 sec (=   0.223 min)   0.1 %
SCF iterations                  ...    11599.646 sec (= 193.327 min)  61.9 %
SCF Gradient evaluation         ...     7135.362 sec (= 118.923 min)  38.1 %
Geometry relaxation             ...        1.096 sec (=   0.018 min)   0.0 %
                             ****ORCA TERMINATED NORMALLY****
TOTAL RUN TIME: 0 days 5 hours 12 minutes 30 seconds 851 msec
