
                                 *****************
                                 * O   R   C   A *
                                 *****************

           --- An Ab Initio, DFT and Semiempirical electronic structure package ---

                  #######################################################
                  #                        -***-                        #
                  #          Department of theory and spectroscopy      #
                  #               Directorship: Frank Neese             #
                  #        Max Planck Institute fuer Kohlenforschung    #
                  #                Kaiser Wilhelm Platz 1               #
                  #                 D-45470 Muelheim/Ruhr               #
                  #                      Germany                        #
                  #                                                     #
                  #                  All rights reserved                #
                  #                        -***-                        #
                  #######################################################


                         Program Version 4.2.1 -  RELEASE  -


 With contributions from (in alphabetic order):
   Daniel Aravena         : Magnetic Suceptibility
   Michael Atanasov       : Ab Initio Ligand Field Theory (pilot matlab implementation)
   Alexander A. Auer      : GIAO ZORA, VPT2
   Ute Becker             : Parallelization
   Giovanni Bistoni       : ED, misc. LED, open-shell LED, HFLD
   Martin Brehm           : Molecular dynamics
   Dmytro Bykov           : SCF Hessian
   Vijay G. Chilkuri      : MRCI spin determinant printing, contributions to CSF-ICE
   Dipayan Datta          : RHF DLPNO-CCSD density
   Achintya Kumar Dutta   : EOM-CC, STEOM-CC
   Dmitry Ganyushin       : Spin-Orbit,Spin-Spin,Magnetic field MRCI
   Miquel Garcia          : C-PCM Hessian, Gaussian charge scheme
   Yang Guo               : DLPNO-NEVPT2, CIM, IAO-localization
   Andreas Hansen         : Spin unrestricted coupled pair/coupled cluster methods
   Benjamin Helmich-Paris : CASSCF linear response (MC-RPA)
   Lee Huntington         : MR-EOM, pCC
   Robert Izsak           : Overlap fitted RIJCOSX, COSX-SCS-MP3, EOM
   Christian Kollmar      : KDIIS, OOCD, Brueckner-CCSD(T), CCSD density
   Simone Kossmann        : Meta GGA functionals, TD-DFT gradient, OOMP2, MP2 Hessian
   Martin Krupicka        : AUTO-CI
   Lucas Lang             : DCDCAS
   Dagmar Lenk            : GEPOL surface, SMD
   Dimitrios Liakos       : Extrapolation schemes; Compound Job, initial MDCI parallelization
   Dimitrios Manganas     : Further ROCIS development; embedding schemes
   Dimitrios Pantazis     : SARC Basis sets
   Taras Petrenko         : DFT Hessian,TD-DFT gradient, ASA, ECA, R-Raman, ABS, FL, XAS/XES, NRVS
   Peter Pinski           : DLPNO-MP2, DLPNO-MP2 Gradient
   Christoph Reimann      : Effective Core Potentials
   Marius Retegan         : Local ZFS, SOC
   Christoph Riplinger    : Optimizer, TS searches, QM/MM, DLPNO-CCSD(T), (RO)-DLPNO pert. Triples
   Tobias Risthaus        : Range-separated hybrids, TD-DFT gradient, RPA, STAB
   Michael Roemelt        : Original ROCIS implementation
   Masaaki Saitow         : Open-shell DLPNO-CCSD energy and density
   Barbara Sandhoefer     : DKH picture change effects
   Avijit Sen             : IP-ROCIS
   Kantharuban Sivalingam : CASSCF convergence, NEVPT2, FIC-MRCI
   Bernardo de Souza      : ESD, SOC TD-DFT
   Georgi Stoychev        : AutoAux, RI-MP2 NMR
   Willem Van den Heuvel  : Paramagnetic NMR
   Boris Wezisla          : Elementary symmetry handling
   Frank Wennmohs         : Technical directorship


 We gratefully acknowledge several colleagues who have allowed us to
 interface, adapt or use parts of their codes:
   Stefan Grimme, W. Hujo, H. Kruse,             : VdW corrections, initial TS optimization,
                  C. Bannwarth                     DFT functionals, gCP, sTDA/sTD-DF
   Ed Valeev, F. Pavosevic, A. Kumar             : LibInt (2-el integral package), F12 methods
   Garnet Chan, S. Sharma, J. Yang, R. Olivares  : DMRG
   Ulf Ekstrom                                   : XCFun DFT Library
   Mihaly Kallay                                 : mrcc  (arbitrary order and MRCC methods)
   Andreas Klamt, Michael Diedenhofen            : otool_cosmo (COSMO solvation model)
   Jiri Pittner, Ondrej Demel                    : Mk-CCSD
   Frank Weinhold                                : gennbo (NPA and NBO analysis)
   Christopher J. Cramer and Donald G. Truhlar   : smd solvation model
   Lars Goerigk                                  : TD-DFT with DH, B97 family of functionals
   V. Asgeirsson, H. Jonsson                     : NEB implementation
   FAccTs GmbH                                   : IRC, NEB, NEB-TS, Multilevel, MM, QM/MM, CI optimization
   S Lehtola, MJT Oliveira, MAL Marques          : LibXC Library


 Your calculation uses the libint2 library for the computation of 2-el integrals
 For citations please refer to: http://libint.valeyev.net

 Your ORCA version has been built with support for libXC version: 4.2.3
 For citations please refer to: https://tddft.org/programs/libxc/

 This ORCA versions uses:
   CBLAS   interface :  Fast vector & matrix operations
   LAPACKE interface :  Fast linear algebra routines
   SCALAPACK package :  Parallel linear algebra routines


----- Orbital basis set information -----
Your calculation utilizes the basis: def2-SVP
   F. Weigend and R. Ahlrichs, Phys. Chem. Chem. Phys. 7, 3297 (2005).

----- AuxJ basis set information -----
Your calculation utilizes the auxiliary basis: def2/J
   F. Weigend, Phys. Chem. Chem. Phys. 8, 1057 (2006).

================================================================================
                                        WARNINGS
                       Please study these warnings very carefully!
================================================================================


INFO   : the flag for use of LIBINT has been found!

================================================================================
                                       INPUT FILE
================================================================================
NAME = MoO3_atom42.inp
|  1> # input to generate an atomic fitting density for Mo
|  2> # this file is use internally by ORCA
|  3> #
|  4> # atomic ground state (S=5): 1s2 2s2 2p6 3s2 3p6 4s2 3d10 4p6 5s2 4d4 
|  5> #
|  6> ! RHF AllowRHF def2-SVP def2/J  NoMulliken NoLoewdin NoMayer NoPrintMOs 
|  7> 
|  8> %output print[p_atomdensfit] 2 end
|  9> 
| 10> %scf
| 11>   guess hcore
| 12>   maxiter 1000
| 13>   maxdisk 500000
| 14>   SCFMode Conventional
| 15>   lshift 0.600000
| 16>   hftyp rohf
| 17>   rohf_case sahf
| 18>   rohf_numop   2
| 19>   rohf_norb[1] 5
| 20>   rohf_nel[1]  4
| 21> end
| 22> 
| 23> %basis
| 24>   NewECP 42
| 25>     N_core 28
| 26>     lmax f
| 27>     s 4
| 28>       1       9.7145938000    180.1031085000  2
| 29>       2       4.6805004000     24.9972279000  2
| 30>       3       9.4500000000     24.8051771000  2
| 31>       4       4.7200000000      4.1537815000  2
| 32>     p 4
| 33>       1       8.1421366000    123.7727523000  2
| 34>       2       4.6259863000     19.5302280000  2
| 35>       3       9.4500000000     24.8051771000  2
| 36>       4       4.7200000000      4.1537815000  2
| 37>     d 4
| 38>       1       6.6184148000     48.3750223000  2
| 39>       2       3.2487516000      8.8920527000  2
| 40>       3       9.4500000000     24.8051771000  2
| 41>       4       4.7200000000      4.1537815000  2
| 42>     f 2
| 43>       1       9.4500000000    -24.8051771000  2
| 44>       2       4.7200000000     -4.1537815000  2
| 45>   end
| 46>   NewGTO 42
| 47>     s 2 
| 48>      1      14.0000000000     -2.0770233737
| 49>      2      12.5000000000      3.0616178399
| 50>     s 1 
| 51>      1       4.0921501803      1.0000000000
| 52>     s 1 
| 53>      1       0.9705360259      1.0000000000
| 54>     s 1 
| 55>      1       0.4421762017      1.0000000000
| 56>     s 1 
| 57>      1       0.0929150243      1.0000000000
| 58>     s 1 
| 59>      1       0.0350163144      1.0000000000
| 60>     p 4 
| 61>      1       8.8931117915      0.0830010811
| 62>      2       5.4689112270     -0.2792276027
| 63>      3       1.3548473007      0.5492197283
| 64>      4       0.6549486746      0.5789213489
| 65>     p 1 
| 66>      1       0.3042819747      1.0000000000
| 67>     p 1 
| 68>      1       0.1000000000      1.0000000000
| 69>     p 1 
| 70>      1       0.0330000000      1.0000000000
| 71>     d 3 
| 72>      1       5.0044445497     -0.0359172347
| 73>      2       1.7736823324      0.3487122377
| 74>      3       0.7695059170      0.7275979769
| 75>     d 1 
| 76>      1       0.3153087894      1.0000000000
| 77>     d 1 
| 78>      1       0.1175437439      1.0000000000
| 79>   end
| 80>   NewAuxGTO 42
| 81>     S 1
| 82>      1 1310.72 1.0
| 83>     S 1
| 84>      1  655.36 1.0
| 85>     S 1
| 86>      1  327.68 1.0
| 87>     S 1
| 88>      1  163.84 1.0
| 89>     S 1
| 90>      1   81.82 1.0
| 91>     S 1
| 92>      1   40.96 1.0
| 93>     S 1
| 94>      1   20.48 1.0
| 95>     S 1
| 96>      1   10.24 1.0
| 97>     S 1
| 98>      1    5.12 1.0
| 99>     S 1
|100>      1    2.56 1.0
|101>     S 1
|102>      1    1.28 1.0
|103>     S 1
|104>      1    0.64 1.0
|105>     S 1
|106>      1    0.32 1.0
|107>     S 1
|108>      1    0.16 1.0
|109>     S 1
|110>      1    0.08 1.0
|111>     S 1
|112>      1    0.04 1.0
|113>     S 1
|114>      1    0.02 1.0
|115>     S 1
|116>      1    0.01 1.0
|117>   end
|118> end
|119> 
|120> * xyz 0 5
|121> 42  0.0 0.0 0.0
|122> *
|123> 
|124> 
|125>                          ****END OF INPUT****
================================================================================

                       ****************************
                       * Single Point Calculation *
                       ****************************

---------------------------------
CARTESIAN COORDINATES (ANGSTROEM)
---------------------------------
  Mo     0.000000    0.000000    0.000000

----------------------------
CARTESIAN COORDINATES (A.U.)
----------------------------
  NO LB      ZA    FRAG     MASS         X           Y           Z
   0 Mo   14.0000*   0    95.940    0.000000    0.000000    0.000000
* core charge reduced due to ECP

--------------------------------
INTERNAL COORDINATES (ANGSTROEM)
--------------------------------
 Mo     0   0   0     0.000000000000     0.00000000     0.00000000

---------------------------
INTERNAL COORDINATES (A.U.)
---------------------------
 Mo     0   0   0     0.000000000000     0.00000000     0.00000000

---------------------
BASIS SET INFORMATION
---------------------
There are 1 groups of distinct atoms

 Group   1 Type Mo  : 7s7p5d contracted to 6s4p3d pattern {211111/4111/311}

Atom   0Mo   basis set group =>   1
---------------------------------
AUXILIARY/J BASIS SET INFORMATION
---------------------------------
There are 1 groups of distinct atoms

 Group   1 Type Mo  : 18s contracted to 18s pattern {111111111111111111}

Atom   0Mo   basis set group =>   1
-------------------------
ECP PARAMETER INFORMATION
-------------------------

 Group 1, Type Mo ECP (replacing 28 core electrons, lmax=3)

Atom   0Mo   ECP group =>   1

------------------------------------------------------------------------------
                           ORCA GTO INTEGRAL CALCULATION
------------------------------------------------------------------------------

                         BASIS SET STATISTICS AND STARTUP INFO

 # of primitive gaussian shells          ...   19
 # of primitive gaussian functions       ...   53
 # of contracted shells                  ...   13
 # of contracted basis functions         ...   33
 Highest angular momentum                ...    2
 Maximum contraction depth               ...    4
 Integral package used                   ... LIBINT
 Integral threshhold            Thresh   ...  1.000e-10
 Primitive cut-off              TCut     ...  1.000e-11
 Storage cut-off                TCutStore... -1.000e+00
 Buffer length                           ... 1048576 integrals/buffer
 Generate file with integrals 4 distinct ...false


------------------------------ INTEGRAL EVALUATION ----------------------------


 * One electron integrals 

   ECP integrals                         ... done
 Pre-screening matrix                    ... done
 Shell pair data                         ... done (   0.000 sec)
 Statistics run                          ... done
 Maximum amount of storage needed        ...     1 MB
 Maximum amount of storage dedicated     ... 500000 MB
 Beginning two electron integral evaluation:
 Starting repulsion integrals
  <ss|ss>  ...          231 b.         0 skpd (  0.0%)     0.000 s. (  0.000 ms/b)
  <ss|sp>  ...          504 b.         0 skpd (  0.0%)     0.000 s. (  0.000 ms/b)
  <ss|sd>  ...          378 b.         0 skpd (  0.0%)     0.000 s. (  0.001 ms/b)
  <ss|pp>  ...          210 b.         0 skpd (  0.0%)     0.000 s. (  0.001 ms/b)
  <ss|pd>  ...          252 b.         0 skpd (  0.0%)     0.000 s. (  0.001 ms/b)
  <ss|dd>  ...          126 b.         0 skpd (  0.0%)     0.000 s. (  0.003 ms/b)
  <sp|sp>  ...          300 b.         0 skpd (  0.0%)     0.000 s. (  0.001 ms/b)
  <sp|sd>  ...          432 b.         0 skpd (  0.0%)     0.001 s. (  0.002 ms/b)
  <sp|pp>  ...          240 b.         0 skpd (  0.0%)     0.001 s. (  0.003 ms/b)
  <sp|pd>  ...          288 b.         0 skpd (  0.0%)     0.001 s. (  0.005 ms/b)
  <sp|dd>  ...          144 b.         0 skpd (  0.0%)     0.001 s. (  0.007 ms/b)
  <sd|sd>  ...          171 b.         0 skpd (  0.0%)     0.000 s. (  0.003 ms/b)
  <sd|pp>  ...          180 b.         0 skpd (  0.0%)     0.001 s. (  0.006 ms/b)
  <sd|pd>  ...          216 b.         0 skpd (  0.0%)     0.002 s. (  0.009 ms/b)
  <sd|dd>  ...          108 b.         0 skpd (  0.0%)     0.002 s. (  0.016 ms/b)
  <pp|pp>  ...           55 b.         0 skpd (  0.0%)     0.001 s. (  0.011 ms/b)
  <pp|pd>  ...          120 b.         0 skpd (  0.0%)     0.002 s. (  0.017 ms/b)
  <pp|dd>  ...           60 b.         0 skpd (  0.0%)     0.002 s. (  0.029 ms/b)
  <pd|pd>  ...           78 b.         0 skpd (  0.0%)     0.003 s. (  0.033 ms/b)
  <pd|dd>  ...           72 b.         0 skpd (  0.0%)     0.004 s. (  0.060 ms/b)
  <dd|dd>  ...           21 b.         0 skpd (  0.0%)     0.003 s. (  0.162 ms/b)


                                      INTEGRAL STATISTICS

Integral type statistics:
 Number of integrals retained            ...     157641 
 One   Center Integrals retained         ...     157641 (100.0%)
 Two   Center Integrals retained         ...          0 (  0.0%)
 Three Center Integrals retained         ...          0 (  0.0%)
 Four  Center Integrals retained         ...          0 (  0.0%)

Storage statistics:
 Number of char integrals                ...          0 (  0.0%)
 Number of short int integrals           ...          0 (  0.0%)
 Number of double/float integrals        ...     157641 (100.0%)
 Amount of memory used                   ...          1 MB
 Amount of memory estimated              ...          1 MB ( 94.1%)

Prescreening statistics:
 Total number of shell quadruples        ...       4186 
 Number of skipped shell quadruples      ...          0 (  0.0%)
 # of negligible batches done            ...          0 (  0.0%)

Timings:
 Total evaluation time               ...     0.280 sec (   0.005 min)
 One electron matrix time            ...     0.022 sec (   0.000 min) =  7.7%
 Schwartz matrix evaluation time     ...     0.113 sec (   0.002 min) = 40.4%
 Statistics run                      ...     0.003 sec (   0.000 min) =  1.1%
 Repulsion integral time             ...     0.026 sec (   0.000 min) =  9.2%

-------------------------------------------------------------------------------
                                 ORCA SCF
-------------------------------------------------------------------------------

------------
SCF SETTINGS
------------
Hamiltonian:
 Ab initio Hamiltonian  Method          .... Hartree-Fock(GTOs)


General Settings:
 Integral files         IntName         .... MoO3_atom42
 Hartree-Fock type      HFTyp           .... ROHF
 Total Charge           Charge          ....    0
 Multiplicity           Mult            ....    5
 Number of Electrons    NEL             ....   14
 Basis Dimension        Dim             ....   33
 Nuclear Repulsion      ENuc            ....      0.0000000000 Eh

Convergence Acceleration:
 DIIS                   CNVDIIS         .... on
   Start iteration      DIISMaxIt       ....    12
   Startup error        DIISStart       ....  0.200000
   # of expansion vecs  DIISMaxEq       ....     5
   Bias factor          DIISBfac        ....   1.050
   Max. coefficient     DIISMaxC        ....  10.000
 Newton-Raphson         CNVNR           .... off
 SOSCF                  CNVSOSCF        .... off
 Level Shifting         CNVShift        .... on
   Level shift para.    LevelShift      ....    0.6000
   Turn off err/grad.   ShiftErr        ....    0.0010
 Zerner damping         CNVZerner       .... off
 Static damping         CNVDamp         .... on
   Fraction old density DampFac         ....    0.7000
   Max. Damping (<1)    DampMax         ....    0.9800
   Min. Damping (>=0)   DampMin         ....    0.0000
   Turn off err/grad.   DampErr         ....    0.1000
 Fernandez-Rico         CNVRico         .... off

SCF Procedure:
 Maximum # iterations   MaxIter         ....  1000
 SCF integral mode      SCFMode         .... Conventional
 Integral Threshold     Thresh          ....  1.000e-10 Eh
 Primitive CutOff       TCut            ....  1.000e-11 Eh
 Integral Buffer length BufferLength    .... 1048576
 Integral index format  IndFormat       ....     0
 Integral value format  ValFormat       ....     0
 Integral Storage       Thresh          ....  1.000e-10 Eh

Convergence Tolerance:
 Convergence Check Mode ConvCheckMode   .... Total+1el-Energy
 Convergence forced     ConvForced      .... 0
 Energy Change          TolE            ....  1.000e-06 Eh
 1-El. energy change                    ....  1.000e-03 Eh
 DIIS Error             TolErr          ....  1.000e-06


Diagonalization of the overlap matrix:
Smallest eigenvalue                        ... 1.942e-02
Time for diagonalization                   ...    0.000 sec
Threshold for overlap eigenvalues          ... 1.000e-08
Number of eigenvalues below threshold      ... 0
Time for construction of square roots      ...    0.000 sec
Total time needed                          ...    0.001 sec

--------------------
INITIAL GUESS: HCORE
--------------------
AVERAGE-CONFIGURATION (SAHF) CASE FOUND

-------------------
FINAL ROHF SETTINGS
-------------------
Number of operators             ... 2
  operator   0:   5 orbitals  10 electrons n(mue)= 2.000
  operator   1:   5 orbitals   4 electrons n(mue)= 0.800
Vector coupling coefficients a and b (Zerner convention):
   1.000    1.000           1.000    1.000 
   1.000    0.938           1.000    1.875 

                      -----------------
                      INTIAL GUESS DONE 
                      -----------------

 InCore treatment chosen:
   Memory dedicated               ...    1024 MB
   Memory needed                  ...      1 MB
   Number of tiny    integrals    ...       0
   Number of small   integrals    ...       0
   Number of regular integrals    ...  157641

--------------
SCF ITERATIONS
--------------
ITER       Energy         Delta-E        Max-DP      RMS-DP      [F,P]     Damp
  0    -61.7424174907   0.000000000000 2.36100308  0.09249480  0.8043825 0.7000
  1    -65.6247394039  -3.882321913219 1.65175249  0.06414309  0.2672352 0.7000
                            ****Activating DIIS****
  2    -65.7499174446  -0.125178040737 3.84672158  0.14547580  0.0558113 0.0000
  3    -65.8653623301  -0.115444885449 0.01092773  0.00052768  0.2174584 0.7000
  4    -65.8939197086  -0.028557378509 0.01183848  0.00053417  0.1980197 0.7000
  5    -65.9040162170  -0.010096508418 0.00820223  0.00039560  0.1940174 0.7000
  6    -65.8727817973   0.031234419667 0.00486583  0.00025068  0.2187651 0.7000
  7    -65.8700874121   0.002694385210 0.57663603  0.02780459  0.2190762 0.7000
  8    -66.9076538930  -1.037566480894 1.34357786  0.06978581  0.0696158 0.0000
  9    -67.1536971350  -0.246043242000 0.00070924  0.00003304  0.1423140 0.7000
 10    -67.1516628578   0.002034277233 0.00053043  0.00002579  0.1444259 0.7000
 11    -67.1512191943   0.000443663473 0.00056978  0.00002854  0.1446166 0.7000
 12    -67.1503895526   0.000829641687 0.00266590  0.00013814  0.1453002 0.7000
 13    -67.1434642019   0.006925350663 0.04229208  0.00232925  0.1525655 0.7000
 14    -67.2364791765  -0.093014974593 0.29211760  0.01194592  0.0494248 0.0000
 15    -67.3134407589  -0.076961582324 0.13410053  0.00433281  0.0377224 0.0000
 16    -67.3254590067  -0.012018247827 0.22936359  0.00671545  0.0276124 0.0000
 17    -67.3401623727  -0.014703366029 0.16482802  0.00492596  0.0227448 0.0000
 18    -67.3475410135  -0.007378640798 0.12353109  0.00394846  0.0181958 0.0000
 19    -67.3518340196  -0.004293006120 0.12156847  0.00424376  0.0138567 0.0000
 20    -67.3550399282  -0.003205908564 0.11087147  0.00341888  0.0088906 0.0000
 21    -67.3566079694  -0.001568041201 0.08433333  0.00244942  0.0049262 0.0000
 22    -67.3572643969  -0.000656427477 0.07396774  0.00209481  0.0034365 0.0000
 23    -67.3575689008  -0.000304503923 0.03761501  0.00108225  0.0033775 0.0000
 24    -67.3576730215  -0.000104120725 0.01855122  0.00058292  0.0033974 0.0000
 25    -67.3577397878  -0.000066766282 0.01081498  0.00043886  0.0034384 0.0000
 26    -67.3578114946  -0.000071706818 0.00497618  0.00034610  0.0034928 0.0000
 27    -67.3578856977  -0.000074203069 0.00536414  0.00027429  0.0035479 0.0000
 28    -67.3579557300  -0.000070032282 0.01069797  0.00031898  0.0035912 0.0000
 29    -67.3580217921  -0.000066062160 0.01245337  0.00035152  0.0036279 0.0000
 30    -67.3580816111  -0.000059818984 0.01215464  0.00034134  0.0036646 0.0000
 31    -67.3581303696  -0.000048758455 0.00926496  0.00026219  0.0037011 0.0000
 32    -67.3581619530  -0.000031583437 0.00469380  0.00013743  0.0037312 0.0000
 33    -67.3581760173  -0.000014064276 0.00128692  0.00004638  0.0037491 0.0000
 34    -67.3581794585  -0.000003441228 0.00045855  0.00002111  0.0037560 0.0000
 35    -67.3581805393  -0.000001080780 0.00135096  0.00004056  0.0037590 0.0000
 36    -67.3581842556  -0.000003716262 0.00211154  0.00006261  0.0037644 0.0000
 37    -67.3581900254  -0.000005769793 0.00204792  0.00006183  0.0037729 0.0000
 38    -67.3581954564  -0.000005431013 0.00158603  0.00004905  0.0037817 0.0000
 39    -67.3581995712  -0.000004114785 0.00123685  0.00003890  0.0037890 0.0000
 40    -67.3582027461  -0.000003174960 0.00117193  0.00003690  0.0037950 0.0000
 41    -67.3582057249  -0.000002978743 0.00121639  0.00003833  0.0038008 0.0000
 42    -67.3582087776  -0.000003052755 0.00118939  0.00003779  0.0038068 0.0000
 43    -67.3582117359  -0.000002958247 0.00108581  0.00003493  0.0038128 0.0000
 44    -67.3582144305  -0.000002694595 0.00097765  0.00003186  0.0038186 0.0000
 45    -67.3582168620  -0.000002431556 0.00090611  0.00002987  0.0038239 0.0000
 46    -67.3582191217  -0.000002259729 0.00085910  0.00002863  0.0038291 0.0000
 47    -67.3582212708  -0.000002149026 0.00081148  0.00002737  0.0038341 0.0000
 48    -67.3582233132  -0.000002042461 0.00075661  0.00002588  0.0038389 0.0000
 49    -67.3582252380  -0.000001924742 0.00070139  0.00002436  0.0038436 0.0000
 50    -67.3582270480  -0.000001810066 0.00065173  0.00002301  0.0038481 0.0000
 51    -67.3582287585  -0.000001710445 0.00060744  0.00002182  0.0038524 0.0000
 52    -67.3582303834  -0.000001624927 0.00056589  0.00002071  0.0038565 0.0000
 53    -67.3582319306  -0.000001547242 0.00052578  0.00001964  0.0038605 0.0000
 54    -67.3582334047  -0.000001474033 0.00048740  0.00001862  0.0038644 0.0000
 55    -67.3582348101  -0.000001405433 0.00045128  0.00001766  0.0038680 0.0000
 56    -67.3582361523  -0.000001342184 0.00041746  0.00001676  0.0038716 0.0000
 57    -67.3582374364  -0.000001284063 0.00038569  0.00001593  0.0038749 0.0000
 58    -67.3582386666  -0.000001230207 0.00035576  0.00001515  0.0038782 0.0000
 59    -67.3582398464  -0.000001179866 0.00032760  0.00001442  0.0038813 0.0000
 60    -67.3582409790  -0.000001132615 0.00030116  0.00001374  0.0038842 0.0000
 61    -67.3582420672  -0.000001088187 0.00027640  0.00001311  0.0038870 0.0000
 62    -67.3582431135  -0.000001046312 0.00025324  0.00001253  0.0038897 0.0000
 63    -67.3582441202  -0.000001006699 0.00023162  0.00001198  0.0038923 0.0000
                 **** Energy Check signals convergence ****

               *****************************************************
               *                     SUCCESS                       *
               *           SCF CONVERGED AFTER  64 CYCLES          *
               *****************************************************


----------------
TOTAL SCF ENERGY
----------------

Total Energy       :          -67.35824509 Eh           -1832.91103 eV

Components:
Nuclear Repulsion  :            0.00000000 Eh               0.00000 eV
Electronic Energy  :          -67.35824509 Eh           -1832.91103 eV
One Electron Energy:         -115.10090281 Eh           -3132.05480 eV
Two Electron Energy:           47.74265772 Eh            1299.14376 eV

Virial components:
Potential Energy   :          -90.87018616 Eh           -2472.70348 eV
Kinetic Energy     :           23.51194107 Eh             639.79244 eV
Virial Ratio       :            3.86485258


---------------
SCF CONVERGENCE
---------------

  Last Energy change         ...   -9.6907e-07  Tolerance :   1.0000e-06
  Last MAX-Density change    ...    2.1146e-04  Tolerance :   1.0000e-05
  Last RMS-Density change    ...    1.1482e-05  Tolerance :   1.0000e-06
  Last DIIS Error            ...    3.8947e-03  Tolerance :   1.0000e-06

             **** THE GBW FILE WAS UPDATED (MoO3_atom42.gbw) ****
             **** DENSITY FILE WAS UPDATED (MoO3_atom42.scfp) ****
             **** ENERGY FILE WAS UPDATED (MoO3_atom42.en.tmp) ****
             **** THE GBW FILE WAS UPDATED (MoO3_atom42.gbw) ****
             **** DENSITY FILE WAS UPDATED (MoO3_atom42.scfp) ****
----------------
ORBITAL ENERGIES
----------------

  NO   OCC          E(Eh)            E(eV) 
   0   2.0000      -3.060281       -83.2745 
   1   2.0000      -1.903594       -51.7994 
   2   2.0000      -1.902806       -51.7780 
   3   2.0000      -1.901470       -51.7416 
   4   2.0000      -0.367899       -10.0111 
   5   0.8000      -0.405136       -11.0243 
   6   0.8000      -0.402828       -10.9615 
   7   0.8000      -0.401234       -10.9181 
   8   0.8000      -0.302575        -8.2335 
   9   0.8000      -0.167683        -4.5629 
  10   0.0000      -0.023398        -0.6367 
  11   0.0000      -0.022798        -0.6204 
  12   0.0000      -0.045971        -1.2509 
  13   0.0000       0.097349         2.6490 
  14   0.0000       0.136714         3.7202 
  15   0.0000       0.148665         4.0454 
  16   0.0000       0.149610         4.0711 
  17   0.0000       0.306316         8.3353 
  18   0.0000       0.297168         8.0863 
  19   0.0000       0.295492         8.0407 
  20   0.0000       0.297924         8.1069 
  21   0.0000       0.335348         9.1253 
  22   0.0000       1.266889        34.4738 
  23   0.0000       1.247647        33.9502 
  24   0.0000       1.268997        34.5312 
  25   0.0000       1.565308        42.5942 
  26   0.0000       1.552897        42.2565 
  27   0.0000       1.550715        42.1971 
  28   0.0000       1.554160        42.2908 
  29   0.0000       1.568576        42.6831 
  30   0.0000       1.587806        43.2064 
  31   0.0000      24.264758       660.2776 
  32   0.0000      85.602618      2329.3657 
CleanUpVectors: The p-vectors have cracked symmetry
CleanUpVectors: The p-vectors have cracked symmetry
CleanUpVectors: The p-vectors have cracked symmetry
CleanUpVectors: The d-vectors have cracked symmetry at i=4
CleanUpVectors: The d-vectors have cracked symmetry at i=6
CleanUpVectors: The d-vectors have cracked symmetry at i=7
CleanUpVectors: The d-vectors have cracked symmetry at i=8
CleanUpVectors: The p-vectors have cracked symmetry
CleanUpVectors: The p-vectors have cracked symmetry
CleanUpVectors: The p-vectors have cracked symmetry
CleanUpVectors: The d-vectors have cracked symmetry at i=12
CleanUpVectors: The p-vectors have cracked symmetry
CleanUpVectors: The p-vectors have cracked symmetry
CleanUpVectors: The p-vectors have cracked symmetry
CleanUpVectors: The d-vectors have cracked symmetry at i=17
CleanUpVectors: The d-vectors have cracked symmetry at i=18
CleanUpVectors: The d-vectors have cracked symmetry at i=19
CleanUpVectors: The d-vectors have cracked symmetry at i=20
CleanUpVectors: The d-vectors have cracked symmetry at i=21
CleanUpVectors: The p-vectors have cracked symmetry
CleanUpVectors: The p-vectors have cracked symmetry
CleanUpVectors: The p-vectors have cracked symmetry
CleanUpVectors: The d-vectors have cracked symmetry at i=25
CleanUpVectors: The d-vectors have cracked symmetry at i=26
CleanUpVectors: The d-vectors have cracked symmetry at i=28
--------------------------
ATOM BASIS FOR ELEMENT Mo
--------------------------
 NewGTO Mo
 S 7
    1         14.000000000000        -0.287430303350
    2         12.500000000000         0.423684083485
    3          4.092150180300        -0.621648021149
    4          0.970536025900         0.839712723340
    5          0.442176201700         0.451290082716
    6          0.092915024300         0.013554695419
    7          0.035016314400        -0.003200673268
 P 19
    1          8.893111791500        -0.024372146144
    2          5.468911227000         0.081991413249
    3          1.354847300700        -0.161270953416
    4          0.654948674600        -0.169992433045
    5          8.893111791500        -0.063789665190
    6          5.468911227000         0.214597629959
    7          1.354847300700        -0.422097424755
    8          0.654948674600        -0.444924313376
    9          8.893111791500        -0.021492842046
   10          5.468911227000         0.072305019165
   11          1.354847300700        -0.142218543570
   12          0.654948674600        -0.149909675199
   13          0.304281974700        -0.058456515109
   14          0.304281974700        -0.152999309329
   15          0.304281974700        -0.051550513374
   16          0.100000000000        -0.002965994667
   17          0.100000000000        -0.007762952250
   18          0.100000000000        -0.002615594642
   19          0.033000000000         0.000163703708
 D 19
    1         14.000000000000         0.000006529455
    2         12.500000000000        -0.000010779647
    3          4.092150180300         0.000052623285
    4          0.970536025900        -0.000369469055
    5          0.442176201700        -0.001110282182
    6          0.092915024300         0.010863533164
    7          0.035016314400         0.020548371027
    8          5.004444549700        -0.011314805835
    9          1.773682332400         0.109852868545
   10          0.769505917000         0.229211126736
   11          5.004444549700         0.009111848357
   12          1.773682332400        -0.088464856959
   13          0.769505917000        -0.184584433786
   14          5.004444549700         0.010909599282
   15          1.773682332400        -0.105918810564
   16          0.769505917000        -0.221002603150
   17          5.004444549700         0.009177922851
   18          1.773682332400        -0.089106359149
   19          0.769505917000        -0.185922946305
 D 19
    1         14.000000000000        -0.000167092620
    2         12.500000000000         0.000275857558
    3          4.092150180300        -0.001285782638
    4          0.970536025900         0.007844895991
    5          0.442176201700         0.023616919633
    6          0.092915024300        -0.184709131275
    7          0.035016314400        -0.337447107356
    8          5.004444549700         0.005606871349
    9          1.773682332400        -0.054435834805
   10          0.769505917000        -0.113581913660
   11          5.004444549700         0.005889671532
   12          1.773682332400        -0.057181477258
   13          0.769505917000        -0.119310774533
   14          5.004444549700        -0.010848172536
   15          1.773682332400         0.105322432301
   16          0.769505917000         0.219758242986
   17          5.004444549700         0.009112287366
   18          1.773682332400        -0.088469119201
   19          0.769505917000        -0.184593327074
 P 19
    1          8.893111791500        -0.010771990421
    2          5.468911227000         0.036238528723
    3          1.354847300700        -0.071278464975
    4          0.654948674600        -0.075133180701
    5          8.893111791500         0.002088140922
    6          5.468911227000        -0.007024807098
    7          1.354847300700         0.013817268094
    8          0.654948674600         0.014564501366
    9          8.893111791500         0.006017571536
   10          5.468911227000        -0.020243978174
   11          1.354847300700         0.039818385020
   12          0.654948674600         0.041971750064
   13          0.304281974700         0.004568098591
   14          0.304281974700        -0.000885521917
   15          0.304281974700        -0.002551883077
   16          0.100000000000         0.029634739293
   17          0.100000000000        -0.005744668293
   18          0.100000000000        -0.016554894378
   19          0.033000000000         0.842814851675
 P 19
    1          8.893111791500        -0.006904954071
    2          5.468911227000         0.023229260951
    3          1.354847300700        -0.045690212087
    4          0.654948674600        -0.048161123591
    5          8.893111791500        -0.018072462957
    6          5.468911227000         0.060798370809
    7          1.354847300700        -0.119585830248
    8          0.654948674600        -0.126052992253
    9          8.893111791500        -0.006089208817
   10          5.468911227000         0.020484976313
   11          1.354847300700        -0.040292410264
   12          0.654948674600        -0.042471410437
   13          0.304281974700        -0.117349748807
   14          0.304281974700        -0.307141650242
   15          0.304281974700        -0.103486151789
   16          0.100000000000         0.579212881535
   17          0.100000000000         1.515984500057
   18          0.100000000000         0.510785176672
   19          0.033000000000        -0.374404545761
 D 19
    1          5.004444549700         0.002014303159
    2          1.773682332400        -0.019556409840
    3          0.769505917000        -0.040805003945
    4          5.004444549700         0.001746377463
    5          1.773682332400        -0.016955180374
    6          0.769505917000        -0.035377464868
    7          5.004444549700         0.003557593400
    8          1.773682332400        -0.034539862703
    9          0.769505917000        -0.072068403424
   10          5.004444549700        -0.005628747480
   11          1.773682332400         0.054648225165
   12          0.769505917000         0.114025072172
   13          5.004444549700         0.005482942783
   14          1.773682332400        -0.053232640621
   15          0.769505917000        -0.111071414861
   16          0.315308789400        -0.128429817569
   17          0.315308789400        -0.111347161373
   18          0.315308789400        -0.226828354597
   19          0.315308789400         0.358882926150
 P 19
    1          8.893111791500        -0.044335164853
    2          5.468911227000         0.149149886159
    3          1.354847300700        -0.293366626939
    4          0.654948674600        -0.309231796745
    5          8.893111791500         0.049462544196
    6          5.468911227000        -0.166399129459
    7          1.354847300700         0.327294593324
    8          0.654948674600         0.344994576290
    9          8.893111791500        -0.096527765484
   10          5.468911227000         0.324733319047
   11          1.354847300700        -0.638726055491
   12          0.654948674600        -0.673268148555
   13          0.304281974700         0.891730326600
   14          0.304281974700        -0.994859291404
   15          0.304281974700         1.941500299506
   16          0.100000000000        -0.564516952752
   17          0.100000000000         0.629803561508
   18          0.100000000000        -1.229082156501
   19          0.033000000000         0.185593796783
 D 19
    1          5.004444549700         0.009720406158
    2          1.773682332400        -0.094373205818
    3          0.769505917000        -0.196912371300
    4          5.004444549700         0.008427479331
    5          1.773682332400        -0.081820474219
    6          0.769505917000        -0.170720740698
    7          5.004444549700         0.017167849153
    8          1.773682332400        -0.166678730826
    9          0.769505917000        -0.347779900531
   10          5.004444549700        -0.027162600331
   11          1.773682332400         0.263715489857
   12          0.769505917000         0.550249851174
   13          5.004444549700         0.026458991805
   14          1.773682332400        -0.256884315198
   15          0.769505917000        -0.535996411448
   16          0.315308789400         0.365348776249
   17          0.315308789400         0.316753149042
   18          0.315308789400         0.645266522486
   19          0.315308789400        -1.020926762654
 end
  // -----------------------------------------------
  // The basis set
  // -----------------------------------------------
  BAS[ATNO] = new BFNGauss[NSH];
  // Basis function   1 L = s
  InitBFNGauss(BAS[ATNO][  0]);
  BAS[ATNO][  0].l  = 0;
  BAS[ATNO][  0].ng = 7;
  BAS[ATNO][  0].a[  0] =        14.000000000000;     BAS[ATNO][  0].d[  0] =        -0.287430303350;
  BAS[ATNO][  0].a[  1] =        12.500000000000;     BAS[ATNO][  0].d[  1] =         0.423684083485;
  BAS[ATNO][  0].a[  2] =         4.092150180300;     BAS[ATNO][  0].d[  2] =        -0.621648021149;
  BAS[ATNO][  0].a[  3] =         0.970536025900;     BAS[ATNO][  0].d[  3] =         0.839712723340;
  BAS[ATNO][  0].a[  4] =         0.442176201700;     BAS[ATNO][  0].d[  4] =         0.451290082716;
  BAS[ATNO][  0].a[  5] =         0.092915024300;     BAS[ATNO][  0].d[  5] =         0.013554695419;
  BAS[ATNO][  0].a[  6] =         0.035016314400;     BAS[ATNO][  0].d[  6] =        -0.003200673268;

  // Basis function   2 L = p
  InitBFNGauss(BAS[ATNO][  1]);
  BAS[ATNO][  1].l  = 1;
  BAS[ATNO][  1].ng = 19;
  BAS[ATNO][  1].a[  0] =         8.893111791500;     BAS[ATNO][  1].d[  0] =         0.024372146144;
  BAS[ATNO][  1].a[  1] =         5.468911227000;     BAS[ATNO][  1].d[  1] =        -0.081991413249;
  BAS[ATNO][  1].a[  2] =         1.354847300700;     BAS[ATNO][  1].d[  2] =         0.161270953416;
  BAS[ATNO][  1].a[  3] =         0.654948674600;     BAS[ATNO][  1].d[  3] =         0.169992433045;
  BAS[ATNO][  1].a[  4] =         8.893111791500;     BAS[ATNO][  1].d[  4] =         0.063789665190;
  BAS[ATNO][  1].a[  5] =         5.468911227000;     BAS[ATNO][  1].d[  5] =        -0.214597629959;
  BAS[ATNO][  1].a[  6] =         1.354847300700;     BAS[ATNO][  1].d[  6] =         0.422097424755;
  BAS[ATNO][  1].a[  7] =         0.654948674600;     BAS[ATNO][  1].d[  7] =         0.444924313376;
  BAS[ATNO][  1].a[  8] =         8.893111791500;     BAS[ATNO][  1].d[  8] =         0.021492842046;
  BAS[ATNO][  1].a[  9] =         5.468911227000;     BAS[ATNO][  1].d[  9] =        -0.072305019165;
  BAS[ATNO][  1].a[ 10] =         1.354847300700;     BAS[ATNO][  1].d[ 10] =         0.142218543570;
  BAS[ATNO][  1].a[ 11] =         0.654948674600;     BAS[ATNO][  1].d[ 11] =         0.149909675199;
  BAS[ATNO][  1].a[ 12] =         0.304281974700;     BAS[ATNO][  1].d[ 12] =         0.058456515109;
  BAS[ATNO][  1].a[ 13] =         0.304281974700;     BAS[ATNO][  1].d[ 13] =         0.152999309329;
  BAS[ATNO][  1].a[ 14] =         0.304281974700;     BAS[ATNO][  1].d[ 14] =         0.051550513374;
  BAS[ATNO][  1].a[ 15] =         0.100000000000;     BAS[ATNO][  1].d[ 15] =         0.002965994667;
  BAS[ATNO][  1].a[ 16] =         0.100000000000;     BAS[ATNO][  1].d[ 16] =         0.007762952250;
  BAS[ATNO][  1].a[ 17] =         0.100000000000;     BAS[ATNO][  1].d[ 17] =         0.002615594642;
  BAS[ATNO][  1].a[ 18] =         0.033000000000;     BAS[ATNO][  1].d[ 18] =        -0.000163703708;

  // Basis function   3 L = d
  InitBFNGauss(BAS[ATNO][  2]);
  BAS[ATNO][  2].l  = 2;
  BAS[ATNO][  2].ng = 19;
  BAS[ATNO][  2].a[  0] =        14.000000000000;     BAS[ATNO][  2].d[  0] =         0.000006529455;
  BAS[ATNO][  2].a[  1] =        12.500000000000;     BAS[ATNO][  2].d[  1] =        -0.000010779647;
  BAS[ATNO][  2].a[  2] =         4.092150180300;     BAS[ATNO][  2].d[  2] =         0.000052623285;
  BAS[ATNO][  2].a[  3] =         0.970536025900;     BAS[ATNO][  2].d[  3] =        -0.000369469055;
  BAS[ATNO][  2].a[  4] =         0.442176201700;     BAS[ATNO][  2].d[  4] =        -0.001110282182;
  BAS[ATNO][  2].a[  5] =         0.092915024300;     BAS[ATNO][  2].d[  5] =         0.010863533164;
  BAS[ATNO][  2].a[  6] =         0.035016314400;     BAS[ATNO][  2].d[  6] =         0.020548371027;
  BAS[ATNO][  2].a[  7] =         5.004444549700;     BAS[ATNO][  2].d[  7] =        -0.011314805835;
  BAS[ATNO][  2].a[  8] =         1.773682332400;     BAS[ATNO][  2].d[  8] =         0.109852868545;
  BAS[ATNO][  2].a[  9] =         0.769505917000;     BAS[ATNO][  2].d[  9] =         0.229211126736;
  BAS[ATNO][  2].a[ 10] =         5.004444549700;     BAS[ATNO][  2].d[ 10] =         0.009111848357;
  BAS[ATNO][  2].a[ 11] =         1.773682332400;     BAS[ATNO][  2].d[ 11] =        -0.088464856959;
  BAS[ATNO][  2].a[ 12] =         0.769505917000;     BAS[ATNO][  2].d[ 12] =        -0.184584433786;
  BAS[ATNO][  2].a[ 13] =         5.004444549700;     BAS[ATNO][  2].d[ 13] =         0.010909599282;
  BAS[ATNO][  2].a[ 14] =         1.773682332400;     BAS[ATNO][  2].d[ 14] =        -0.105918810564;
  BAS[ATNO][  2].a[ 15] =         0.769505917000;     BAS[ATNO][  2].d[ 15] =        -0.221002603150;
  BAS[ATNO][  2].a[ 16] =         5.004444549700;     BAS[ATNO][  2].d[ 16] =         0.009177922851;
  BAS[ATNO][  2].a[ 17] =         1.773682332400;     BAS[ATNO][  2].d[ 17] =        -0.089106359149;
  BAS[ATNO][  2].a[ 18] =         0.769505917000;     BAS[ATNO][  2].d[ 18] =        -0.185922946305;

  // Basis function   4 L = d
  InitBFNGauss(BAS[ATNO][  3]);
  BAS[ATNO][  3].l  = 2;
  BAS[ATNO][  3].ng = 19;
  BAS[ATNO][  3].a[  0] =        14.000000000000;     BAS[ATNO][  3].d[  0] =         0.000167092620;
  BAS[ATNO][  3].a[  1] =        12.500000000000;     BAS[ATNO][  3].d[  1] =        -0.000275857558;
  BAS[ATNO][  3].a[  2] =         4.092150180300;     BAS[ATNO][  3].d[  2] =         0.001285782638;
  BAS[ATNO][  3].a[  3] =         0.970536025900;     BAS[ATNO][  3].d[  3] =        -0.007844895991;
  BAS[ATNO][  3].a[  4] =         0.442176201700;     BAS[ATNO][  3].d[  4] =        -0.023616919633;
  BAS[ATNO][  3].a[  5] =         0.092915024300;     BAS[ATNO][  3].d[  5] =         0.184709131275;
  BAS[ATNO][  3].a[  6] =         0.035016314400;     BAS[ATNO][  3].d[  6] =         0.337447107356;
  BAS[ATNO][  3].a[  7] =         5.004444549700;     BAS[ATNO][  3].d[  7] =        -0.005606871349;
  BAS[ATNO][  3].a[  8] =         1.773682332400;     BAS[ATNO][  3].d[  8] =         0.054435834805;
  BAS[ATNO][  3].a[  9] =         0.769505917000;     BAS[ATNO][  3].d[  9] =         0.113581913660;
  BAS[ATNO][  3].a[ 10] =         5.004444549700;     BAS[ATNO][  3].d[ 10] =        -0.005889671532;
  BAS[ATNO][  3].a[ 11] =         1.773682332400;     BAS[ATNO][  3].d[ 11] =         0.057181477258;
  BAS[ATNO][  3].a[ 12] =         0.769505917000;     BAS[ATNO][  3].d[ 12] =         0.119310774533;
  BAS[ATNO][  3].a[ 13] =         5.004444549700;     BAS[ATNO][  3].d[ 13] =         0.010848172536;
  BAS[ATNO][  3].a[ 14] =         1.773682332400;     BAS[ATNO][  3].d[ 14] =        -0.105322432301;
  BAS[ATNO][  3].a[ 15] =         0.769505917000;     BAS[ATNO][  3].d[ 15] =        -0.219758242986;
  BAS[ATNO][  3].a[ 16] =         5.004444549700;     BAS[ATNO][  3].d[ 16] =        -0.009112287366;
  BAS[ATNO][  3].a[ 17] =         1.773682332400;     BAS[ATNO][  3].d[ 17] =         0.088469119201;
  BAS[ATNO][  3].a[ 18] =         0.769505917000;     BAS[ATNO][  3].d[ 18] =         0.184593327074;

  // Basis function   5 L = p
  InitBFNGauss(BAS[ATNO][  4]);
  BAS[ATNO][  4].l  = 1;
  BAS[ATNO][  4].ng = 19;
  BAS[ATNO][  4].a[  0] =         8.893111791500;     BAS[ATNO][  4].d[  0] =        -0.010771990421;
  BAS[ATNO][  4].a[  1] =         5.468911227000;     BAS[ATNO][  4].d[  1] =         0.036238528723;
  BAS[ATNO][  4].a[  2] =         1.354847300700;     BAS[ATNO][  4].d[  2] =        -0.071278464975;
  BAS[ATNO][  4].a[  3] =         0.654948674600;     BAS[ATNO][  4].d[  3] =        -0.075133180701;
  BAS[ATNO][  4].a[  4] =         8.893111791500;     BAS[ATNO][  4].d[  4] =         0.002088140922;
  BAS[ATNO][  4].a[  5] =         5.468911227000;     BAS[ATNO][  4].d[  5] =        -0.007024807098;
  BAS[ATNO][  4].a[  6] =         1.354847300700;     BAS[ATNO][  4].d[  6] =         0.013817268094;
  BAS[ATNO][  4].a[  7] =         0.654948674600;     BAS[ATNO][  4].d[  7] =         0.014564501366;
  BAS[ATNO][  4].a[  8] =         8.893111791500;     BAS[ATNO][  4].d[  8] =         0.006017571536;
  BAS[ATNO][  4].a[  9] =         5.468911227000;     BAS[ATNO][  4].d[  9] =        -0.020243978174;
  BAS[ATNO][  4].a[ 10] =         1.354847300700;     BAS[ATNO][  4].d[ 10] =         0.039818385020;
  BAS[ATNO][  4].a[ 11] =         0.654948674600;     BAS[ATNO][  4].d[ 11] =         0.041971750064;
  BAS[ATNO][  4].a[ 12] =         0.304281974700;     BAS[ATNO][  4].d[ 12] =         0.004568098591;
  BAS[ATNO][  4].a[ 13] =         0.304281974700;     BAS[ATNO][  4].d[ 13] =        -0.000885521917;
  BAS[ATNO][  4].a[ 14] =         0.304281974700;     BAS[ATNO][  4].d[ 14] =        -0.002551883077;
  BAS[ATNO][  4].a[ 15] =         0.100000000000;     BAS[ATNO][  4].d[ 15] =         0.029634739293;
  BAS[ATNO][  4].a[ 16] =         0.100000000000;     BAS[ATNO][  4].d[ 16] =        -0.005744668293;
  BAS[ATNO][  4].a[ 17] =         0.100000000000;     BAS[ATNO][  4].d[ 17] =        -0.016554894378;
  BAS[ATNO][  4].a[ 18] =         0.033000000000;     BAS[ATNO][  4].d[ 18] =         0.842814851675;

  // Basis function   6 L = p
  InitBFNGauss(BAS[ATNO][  5]);
  BAS[ATNO][  5].l  = 1;
  BAS[ATNO][  5].ng = 19;
  BAS[ATNO][  5].a[  0] =         8.893111791500;     BAS[ATNO][  5].d[  0] =        -0.006904954071;
  BAS[ATNO][  5].a[  1] =         5.468911227000;     BAS[ATNO][  5].d[  1] =         0.023229260951;
  BAS[ATNO][  5].a[  2] =         1.354847300700;     BAS[ATNO][  5].d[  2] =        -0.045690212087;
  BAS[ATNO][  5].a[  3] =         0.654948674600;     BAS[ATNO][  5].d[  3] =        -0.048161123591;
  BAS[ATNO][  5].a[  4] =         8.893111791500;     BAS[ATNO][  5].d[  4] =        -0.018072462957;
  BAS[ATNO][  5].a[  5] =         5.468911227000;     BAS[ATNO][  5].d[  5] =         0.060798370809;
  BAS[ATNO][  5].a[  6] =         1.354847300700;     BAS[ATNO][  5].d[  6] =        -0.119585830248;
  BAS[ATNO][  5].a[  7] =         0.654948674600;     BAS[ATNO][  5].d[  7] =        -0.126052992253;
  BAS[ATNO][  5].a[  8] =         8.893111791500;     BAS[ATNO][  5].d[  8] =        -0.006089208817;
  BAS[ATNO][  5].a[  9] =         5.468911227000;     BAS[ATNO][  5].d[  9] =         0.020484976313;
  BAS[ATNO][  5].a[ 10] =         1.354847300700;     BAS[ATNO][  5].d[ 10] =        -0.040292410264;
  BAS[ATNO][  5].a[ 11] =         0.654948674600;     BAS[ATNO][  5].d[ 11] =        -0.042471410437;
  BAS[ATNO][  5].a[ 12] =         0.304281974700;     BAS[ATNO][  5].d[ 12] =        -0.117349748807;
  BAS[ATNO][  5].a[ 13] =         0.304281974700;     BAS[ATNO][  5].d[ 13] =        -0.307141650242;
  BAS[ATNO][  5].a[ 14] =         0.304281974700;     BAS[ATNO][  5].d[ 14] =        -0.103486151789;
  BAS[ATNO][  5].a[ 15] =         0.100000000000;     BAS[ATNO][  5].d[ 15] =         0.579212881535;
  BAS[ATNO][  5].a[ 16] =         0.100000000000;     BAS[ATNO][  5].d[ 16] =         1.515984500057;
  BAS[ATNO][  5].a[ 17] =         0.100000000000;     BAS[ATNO][  5].d[ 17] =         0.510785176672;
  BAS[ATNO][  5].a[ 18] =         0.033000000000;     BAS[ATNO][  5].d[ 18] =        -0.374404545761;

  // Basis function   7 L = d
  InitBFNGauss(BAS[ATNO][  6]);
  BAS[ATNO][  6].l  = 2;
  BAS[ATNO][  6].ng = 19;
  BAS[ATNO][  6].a[  0] =         5.004444549700;     BAS[ATNO][  6].d[  0] =         0.002014303159;
  BAS[ATNO][  6].a[  1] =         1.773682332400;     BAS[ATNO][  6].d[  1] =        -0.019556409840;
  BAS[ATNO][  6].a[  2] =         0.769505917000;     BAS[ATNO][  6].d[  2] =        -0.040805003945;
  BAS[ATNO][  6].a[  3] =         5.004444549700;     BAS[ATNO][  6].d[  3] =         0.001746377463;
  BAS[ATNO][  6].a[  4] =         1.773682332400;     BAS[ATNO][  6].d[  4] =        -0.016955180374;
  BAS[ATNO][  6].a[  5] =         0.769505917000;     BAS[ATNO][  6].d[  5] =        -0.035377464868;
  BAS[ATNO][  6].a[  6] =         5.004444549700;     BAS[ATNO][  6].d[  6] =         0.003557593400;
  BAS[ATNO][  6].a[  7] =         1.773682332400;     BAS[ATNO][  6].d[  7] =        -0.034539862703;
  BAS[ATNO][  6].a[  8] =         0.769505917000;     BAS[ATNO][  6].d[  8] =        -0.072068403424;
  BAS[ATNO][  6].a[  9] =         5.004444549700;     BAS[ATNO][  6].d[  9] =        -0.005628747480;
  BAS[ATNO][  6].a[ 10] =         1.773682332400;     BAS[ATNO][  6].d[ 10] =         0.054648225165;
  BAS[ATNO][  6].a[ 11] =         0.769505917000;     BAS[ATNO][  6].d[ 11] =         0.114025072172;
  BAS[ATNO][  6].a[ 12] =         5.004444549700;     BAS[ATNO][  6].d[ 12] =         0.005482942783;
  BAS[ATNO][  6].a[ 13] =         1.773682332400;     BAS[ATNO][  6].d[ 13] =        -0.053232640621;
  BAS[ATNO][  6].a[ 14] =         0.769505917000;     BAS[ATNO][  6].d[ 14] =        -0.111071414861;
  BAS[ATNO][  6].a[ 15] =         0.315308789400;     BAS[ATNO][  6].d[ 15] =        -0.128429817569;
  BAS[ATNO][  6].a[ 16] =         0.315308789400;     BAS[ATNO][  6].d[ 16] =        -0.111347161373;
  BAS[ATNO][  6].a[ 17] =         0.315308789400;     BAS[ATNO][  6].d[ 17] =        -0.226828354597;
  BAS[ATNO][  6].a[ 18] =         0.315308789400;     BAS[ATNO][  6].d[ 18] =         0.358882926150;

  // Basis function   8 L = p
  InitBFNGauss(BAS[ATNO][  7]);
  BAS[ATNO][  7].l  = 1;
  BAS[ATNO][  7].ng = 19;
  BAS[ATNO][  7].a[  0] =         8.893111791500;     BAS[ATNO][  7].d[  0] =        -0.044335164853;
  BAS[ATNO][  7].a[  1] =         5.468911227000;     BAS[ATNO][  7].d[  1] =         0.149149886159;
  BAS[ATNO][  7].a[  2] =         1.354847300700;     BAS[ATNO][  7].d[  2] =        -0.293366626939;
  BAS[ATNO][  7].a[  3] =         0.654948674600;     BAS[ATNO][  7].d[  3] =        -0.309231796745;
  BAS[ATNO][  7].a[  4] =         8.893111791500;     BAS[ATNO][  7].d[  4] =         0.049462544196;
  BAS[ATNO][  7].a[  5] =         5.468911227000;     BAS[ATNO][  7].d[  5] =        -0.166399129459;
  BAS[ATNO][  7].a[  6] =         1.354847300700;     BAS[ATNO][  7].d[  6] =         0.327294593324;
  BAS[ATNO][  7].a[  7] =         0.654948674600;     BAS[ATNO][  7].d[  7] =         0.344994576290;
  BAS[ATNO][  7].a[  8] =         8.893111791500;     BAS[ATNO][  7].d[  8] =        -0.096527765484;
  BAS[ATNO][  7].a[  9] =         5.468911227000;     BAS[ATNO][  7].d[  9] =         0.324733319047;
  BAS[ATNO][  7].a[ 10] =         1.354847300700;     BAS[ATNO][  7].d[ 10] =        -0.638726055491;
  BAS[ATNO][  7].a[ 11] =         0.654948674600;     BAS[ATNO][  7].d[ 11] =        -0.673268148555;
  BAS[ATNO][  7].a[ 12] =         0.304281974700;     BAS[ATNO][  7].d[ 12] =         0.891730326600;
  BAS[ATNO][  7].a[ 13] =         0.304281974700;     BAS[ATNO][  7].d[ 13] =        -0.994859291404;
  BAS[ATNO][  7].a[ 14] =         0.304281974700;     BAS[ATNO][  7].d[ 14] =         1.941500299506;
  BAS[ATNO][  7].a[ 15] =         0.100000000000;     BAS[ATNO][  7].d[ 15] =        -0.564516952752;
  BAS[ATNO][  7].a[ 16] =         0.100000000000;     BAS[ATNO][  7].d[ 16] =         0.629803561508;
  BAS[ATNO][  7].a[ 17] =         0.100000000000;     BAS[ATNO][  7].d[ 17] =        -1.229082156501;
  BAS[ATNO][  7].a[ 18] =         0.033000000000;     BAS[ATNO][  7].d[ 18] =         0.185593796783;

  // Basis function   9 L = d
  InitBFNGauss(BAS[ATNO][  8]);
  BAS[ATNO][  8].l  = 2;
  BAS[ATNO][  8].ng = 19;
  BAS[ATNO][  8].a[  0] =         5.004444549700;     BAS[ATNO][  8].d[  0] =        -0.009720406158;
  BAS[ATNO][  8].a[  1] =         1.773682332400;     BAS[ATNO][  8].d[  1] =         0.094373205818;
  BAS[ATNO][  8].a[  2] =         0.769505917000;     BAS[ATNO][  8].d[  2] =         0.196912371300;
  BAS[ATNO][  8].a[  3] =         5.004444549700;     BAS[ATNO][  8].d[  3] =        -0.008427479331;
  BAS[ATNO][  8].a[  4] =         1.773682332400;     BAS[ATNO][  8].d[  4] =         0.081820474219;
  BAS[ATNO][  8].a[  5] =         0.769505917000;     BAS[ATNO][  8].d[  5] =         0.170720740698;
  BAS[ATNO][  8].a[  6] =         5.004444549700;     BAS[ATNO][  8].d[  6] =        -0.017167849153;
  BAS[ATNO][  8].a[  7] =         1.773682332400;     BAS[ATNO][  8].d[  7] =         0.166678730826;
  BAS[ATNO][  8].a[  8] =         0.769505917000;     BAS[ATNO][  8].d[  8] =         0.347779900531;
  BAS[ATNO][  8].a[  9] =         5.004444549700;     BAS[ATNO][  8].d[  9] =         0.027162600331;
  BAS[ATNO][  8].a[ 10] =         1.773682332400;     BAS[ATNO][  8].d[ 10] =        -0.263715489857;
  BAS[ATNO][  8].a[ 11] =         0.769505917000;     BAS[ATNO][  8].d[ 11] =        -0.550249851174;
  BAS[ATNO][  8].a[ 12] =         5.004444549700;     BAS[ATNO][  8].d[ 12] =        -0.026458991805;
  BAS[ATNO][  8].a[ 13] =         1.773682332400;     BAS[ATNO][  8].d[ 13] =         0.256884315198;
  BAS[ATNO][  8].a[ 14] =         0.769505917000;     BAS[ATNO][  8].d[ 14] =         0.535996411448;
  BAS[ATNO][  8].a[ 15] =         0.315308789400;     BAS[ATNO][  8].d[ 15] =        -0.365348776249;
  BAS[ATNO][  8].a[ 16] =         0.315308789400;     BAS[ATNO][  8].d[ 16] =        -0.316753149042;
  BAS[ATNO][  8].a[ 17] =         0.315308789400;     BAS[ATNO][  8].d[ 17] =        -0.645266522486;
  BAS[ATNO][  8].a[ 18] =         0.315308789400;     BAS[ATNO][  8].d[ 18] =         1.020926762654;

-------------------------------------------
RADIAL EXPECTATION VALUES <R**-3> TO <R**3>
-------------------------------------------
   0 :     0.000000     1.052540     0.975373     1.131879     1.413081     1.944084
   1 :     0.986481     0.882564     0.887995     1.258769     1.770641     2.782611
   2 :     0.986192     0.882350     0.887864     1.259045     1.771596     2.785394
   3 :     0.991070     0.885949     0.890056     1.254549     1.756380     2.742198
   4 :     0.467724     0.500662     0.645291     1.865732     4.183680    55.893305
   5 :     0.000000     0.157882     0.338193     3.469828    13.918448    62.942689
   6 :     0.000000     0.086270     0.230343     5.648631    36.537598   255.549824
   7 :     0.000000     0.080392     0.085342     0.283511     0.942169     4.494487
   8 :     0.000000     0.558802     0.588644     1.918020     6.418664    31.210266
   9 :     0.462603     0.496880     0.641969     1.883646     4.292233    56.232540
  10 :     0.464923     0.498360     0.643596     1.871783     4.212489    56.493660
  11 :     0.464554     0.498033     0.643332     1.872950     4.218649    56.632407
  12 :     0.054473     0.093019     0.262088     4.554510    23.738576   139.461220
  13 :     0.022576     0.051366     0.198996     5.787912    37.118365   259.096868
  14 :     0.022536     0.051283     0.198829     5.791968    37.164494   259.523458
  15 :     0.332798     0.380484     0.547258     2.313221     6.600086   111.594876
  16 :     0.042763     0.071130     0.214400     6.086135    43.263626   337.085514
  17 :     0.070369     0.108425     0.273268     4.877938    30.002164   217.632973
  18 :     0.070507     0.108568     0.273455     4.874218    29.960012   217.242392
  19 :     0.114971     0.152321     0.320637     3.866657    16.565210   376.211339
  20 :     0.112706     0.150600     0.319349     3.874457    16.620427   377.855149
  21 :     0.113805     0.151852     0.320439     3.867903    16.578909   376.419351
  22 :     0.112907     0.150795     0.319518     3.873705    16.616693   377.779500
  23 :     0.205860     0.239204     0.396544     3.483179    14.438063   326.539635
  24 :     0.425018     0.408559     0.538161     2.673135    10.283921    54.878720
  25 :     0.416137     0.400816     0.531876     2.702559    10.416508    55.102239
  26 :     0.425209     0.408713     0.538272     2.672522    10.278988    54.839928
  27 :     0.638644     0.563891     0.637467     2.225621     6.629787   122.278723
  28 :     0.644110     0.567889     0.640445     2.211691     6.544734   120.085174
  29 :     0.644279     0.568021     0.640541     2.211277     6.542310   120.022077
  30 :     0.683082     0.597161     0.659589     2.161532     6.339502   116.299472
  31 :     0.000000     4.831476     1.950873     0.664987     0.790259     2.326896
  32 :     0.000000    49.233133     5.591635     0.251502     0.122369     0.238824
Making the total density                ... o.k.
o.k.
Initializing the integrals              ... done
Making exponents                        ... done
Making rho(0)                           ... done (         0.000250821)
Integral calculation                    ... Two index integrals                     ... done
Solving the equation system             ... done
atomic density will be written to file MoO3_atom42.adf

-------
TIMINGS
-------

Total SCF time: 0 days 0 hours 0 min 1 sec 

Total time                  ....       1.748 sec
Sum of individual times     ....       1.193 sec  ( 68.3%)

Fock matrix formation       ....       1.118 sec  ( 64.0%)
Diagonalization             ....       0.055 sec  (  3.1%)
Density matrix formation    ....       0.002 sec  (  0.1%)
Population analysis         ....       0.000 sec  (  0.0%)
Initial guess               ....       0.000 sec  (  0.0%)
Orbital Transformation      ....       0.000 sec  (  0.0%)
Orbital Orthonormalization  ....       0.000 sec  (  0.0%)
DIIS solution               ....       0.017 sec  (  1.0%)

-------------------------   --------------------
FINAL SINGLE POINT ENERGY       -67.358245089318
-------------------------   --------------------


                            ***************************************
                            *     ORCA property calculations      *
                            ***************************************

                                    ---------------------
                                    Active property flags
                                    ---------------------
   (+) Dipole Moment


------------------------------------------------------------------------------
                       ORCA ELECTRIC PROPERTIES CALCULATION
------------------------------------------------------------------------------

Dipole Moment Calculation                       ... on
Quadrupole Moment Calculation                   ... off
Polarizability Calculation                      ... off
GBWName                                         ... MoO3_atom42.gbw
Electron density file                           ... MoO3_atom42.scfp
The origin for moment calculation is the CENTER OF MASS  = ( 0.000000,  0.000000  0.000000)

-------------
DIPOLE MOMENT
-------------
                                X             Y             Z
Electronic contribution:     -0.00000       0.00000       0.00000
Nuclear contribution   :      0.00000       0.00000       0.00000
                        -----------------------------------------
Total Dipole Moment    :     -0.00000       0.00000       0.00000
                        -----------------------------------------
Magnitude (a.u.)       :      0.00000
Magnitude (Debye)      :      0.00000



--------------------
Rotational spectrum 
--------------------
 
Rotational constants in cm-1:     0.000000     0.000000     0.000000 
Rotational constants in MHz :     0.000000     0.000000     0.000000 

 Dipole components along the rotational axes: 
x,y,z [a.u.] :    -0.000000     0.000000     0.000000 
x,y,z [Debye]:    -0.000000     0.000000     0.000000 

 

Timings for individual modules:

Sum of individual times         ...        2.121 sec (=   0.035 min)
GTO integral calculation        ...        0.349 sec (=   0.006 min)  16.5 %
SCF iterations                  ...        1.772 sec (=   0.030 min)  83.5 %
                             ****ORCA TERMINATED NORMALLY****
TOTAL RUN TIME: 0 days 0 hours 0 minutes 2 seconds 327 msec
