Warning: no access to tty (Bad file descriptor).
Thus no job control in this shell.

                                 *****************
                                 * O   R   C   A *
                                 *****************

           --- An Ab Initio, DFT and Semiempirical electronic structure package ---

                  #######################################################
                  #                        -***-                        #
                  #          Department of theory and spectroscopy      #
                  #               Directorship: Frank Neese             #
                  #        Max Planck Institute fuer Kohlenforschung    #
                  #                Kaiser Wilhelm Platz 1               #
                  #                 D-45470 Muelheim/Ruhr               #
                  #                      Germany                        #
                  #                                                     #
                  #                  All rights reserved                #
                  #                        -***-                        #
                  #######################################################


                         Program Version 4.2.1 -  RELEASE  -


 With contributions from (in alphabetic order):
   Daniel Aravena         : Magnetic Suceptibility
   Michael Atanasov       : Ab Initio Ligand Field Theory (pilot matlab implementation)
   Alexander A. Auer      : GIAO ZORA, VPT2
   Ute Becker             : Parallelization
   Giovanni Bistoni       : ED, misc. LED, open-shell LED, HFLD
   Martin Brehm           : Molecular dynamics
   Dmytro Bykov           : SCF Hessian
   Vijay G. Chilkuri      : MRCI spin determinant printing, contributions to CSF-ICE
   Dipayan Datta          : RHF DLPNO-CCSD density
   Achintya Kumar Dutta   : EOM-CC, STEOM-CC
   Dmitry Ganyushin       : Spin-Orbit,Spin-Spin,Magnetic field MRCI
   Miquel Garcia          : C-PCM Hessian, Gaussian charge scheme
   Yang Guo               : DLPNO-NEVPT2, CIM, IAO-localization
   Andreas Hansen         : Spin unrestricted coupled pair/coupled cluster methods
   Benjamin Helmich-Paris : CASSCF linear response (MC-RPA)
   Lee Huntington         : MR-EOM, pCC
   Robert Izsak           : Overlap fitted RIJCOSX, COSX-SCS-MP3, EOM
   Christian Kollmar      : KDIIS, OOCD, Brueckner-CCSD(T), CCSD density
   Simone Kossmann        : Meta GGA functionals, TD-DFT gradient, OOMP2, MP2 Hessian
   Martin Krupicka        : AUTO-CI
   Lucas Lang             : DCDCAS
   Dagmar Lenk            : GEPOL surface, SMD
   Dimitrios Liakos       : Extrapolation schemes; Compound Job, initial MDCI parallelization
   Dimitrios Manganas     : Further ROCIS development; embedding schemes
   Dimitrios Pantazis     : SARC Basis sets
   Taras Petrenko         : DFT Hessian,TD-DFT gradient, ASA, ECA, R-Raman, ABS, FL, XAS/XES, NRVS
   Peter Pinski           : DLPNO-MP2, DLPNO-MP2 Gradient
   Christoph Reimann      : Effective Core Potentials
   Marius Retegan         : Local ZFS, SOC
   Christoph Riplinger    : Optimizer, TS searches, QM/MM, DLPNO-CCSD(T), (RO)-DLPNO pert. Triples
   Tobias Risthaus        : Range-separated hybrids, TD-DFT gradient, RPA, STAB
   Michael Roemelt        : Original ROCIS implementation
   Masaaki Saitow         : Open-shell DLPNO-CCSD energy and density
   Barbara Sandhoefer     : DKH picture change effects
   Avijit Sen             : IP-ROCIS
   Kantharuban Sivalingam : CASSCF convergence, NEVPT2, FIC-MRCI
   Bernardo de Souza      : ESD, SOC TD-DFT
   Georgi Stoychev        : AutoAux, RI-MP2 NMR
   Willem Van den Heuvel  : Paramagnetic NMR
   Boris Wezisla          : Elementary symmetry handling
   Frank Wennmohs         : Technical directorship


 We gratefully acknowledge several colleagues who have allowed us to
 interface, adapt or use parts of their codes:
   Stefan Grimme, W. Hujo, H. Kruse,             : VdW corrections, initial TS optimization,
                  C. Bannwarth                     DFT functionals, gCP, sTDA/sTD-DF
   Ed Valeev, F. Pavosevic, A. Kumar             : LibInt (2-el integral package), F12 methods
   Garnet Chan, S. Sharma, J. Yang, R. Olivares  : DMRG
   Ulf Ekstrom                                   : XCFun DFT Library
   Mihaly Kallay                                 : mrcc  (arbitrary order and MRCC methods)
   Andreas Klamt, Michael Diedenhofen            : otool_cosmo (COSMO solvation model)
   Jiri Pittner, Ondrej Demel                    : Mk-CCSD
   Frank Weinhold                                : gennbo (NPA and NBO analysis)
   Christopher J. Cramer and Donald G. Truhlar   : smd solvation model
   Lars Goerigk                                  : TD-DFT with DH, B97 family of functionals
   V. Asgeirsson, H. Jonsson                     : NEB implementation
   FAccTs GmbH                                   : IRC, NEB, NEB-TS, Multilevel, MM, QM/MM, CI optimization
   S Lehtola, MJT Oliveira, MAL Marques          : LibXC Library


 Your calculation uses the libint2 library for the computation of 2-el integrals
 For citations please refer to: http://libint.valeyev.net

 Your ORCA version has been built with support for libXC version: 4.2.3
 For citations please refer to: https://tddft.org/programs/libxc/

 This ORCA versions uses:
   CBLAS   interface :  Fast vector & matrix operations
   LAPACKE interface :  Fast linear algebra routines
   SCALAPACK package :  Parallel linear algebra routines


Your calculation utilizes the atom-pairwise dispersion correction
with the zero-damping scheme (D30)
Cite in your paper:
S.Grimme, J.Antony, S.Ehrlich and H.Krieg, J.Chem.Phys., 132, (2010), 154104 
   

XCFun DFT library Copyright 2009-2010 Ulf Ekstrom and contributors.
See http://admol.org/xcfun for more information. This is free soft-
ware; see the source code for copying conditions. There is ABSOLUTELY
NO WARRANTY; not even for MERCHANTABILITY or FITNESS FOR A PARTICULAR
PURPOSE. For details see the documentation. Scientific users of this 
library should cite U. Ekstrom, L. Visscher, R. Bast, A. J. Thorvald-
sen and K. Ruud; J.Chem.Theor.Comp. 2010, DOI: 10.1021/ct100117s
XCFun Version 0.99 
----- Orbital basis set information -----
Your calculation utilizes the basis: def2-TZVP
   F. Weigend and R. Ahlrichs, Phys. Chem. Chem. Phys. 7, 3297 (2005).

----- AuxJ basis set information -----
Your calculation utilizes the auxiliary basis: def2/J
   F. Weigend, Phys. Chem. Chem. Phys. 8, 1057 (2006).

================================================================================
                                        WARNINGS
                       Please study these warnings very carefully!
================================================================================


WARNING: Geometry Optimization
  ===> : Switching off AutoStart
         For restart on a previous wavefunction, please use MOREAD

INFO   : the flag for use of LIBINT has been found!

================================================================================
                                       INPUT FILE
================================================================================
NAME = F4OCTCNQ.inp
|  1> # avogadro generated ORCA input file 
|  2> # Basic Mode
|  3> # 
|  4> ! wB97X-D3 OPT def2-TZVP def2/J CPCM
|  5> %cpcm
|  6>   epsilon 3
|  7> end
|  8> %pal
|  9>  nprocs 8
| 10> end 
| 11> 
| 12> * xyz 0 1
| 13>    F        0.77889        0.22952       -0.34405
| 14>    C        2.10920        0.06578       -0.12157
| 15>    C        2.67176       -1.20938        0.09901
| 16>    C        4.06544       -1.25233        0.33067
| 17>    F        4.71041       -2.41821        0.59828
| 18>    C        4.84873       -0.09205        0.31774
| 19>    F        6.12202       -0.27407        0.67080
| 20>    C        1.89674       -2.34000        0.09997
| 21>    C        2.43628       -3.66577        0.32869
| 22>    N        2.79276       -4.75354        0.50253
| 23>    N        0.52651       -2.29056       -0.12235
| 24>    C       -0.61768       -2.33139       -0.29929
| 25>    C        2.89205        1.22535       -0.12474
| 26>    F        2.19770        2.36552       -0.37224
| 27>    C        4.31594        1.19651        0.07053
| 28>    C        5.08969        2.36254        0.04870
| 29>    C        4.30370        3.66354        0.04348
| 30>    N        3.65165        4.74282        0.03916
| 31>    C        6.59344        2.45721        0.05263
| 32>    O        7.36065        1.42814       -0.41315
| 33>    C        8.74606        1.38970       -0.54013
| 34>    C        9.33823        0.12198        0.12775
| 35>    C        9.10551        0.17780        1.64949
| 36>    C        8.78439       -1.15904       -0.56800
| 37>    C        9.13874       -2.48894        0.12088
| 38>    C        8.46839       -3.66964       -0.60176
| 39>    C        8.71889       -4.99316        0.13194
| 40>    C        8.00208       -6.15149       -0.55898
| 41>    O        7.11546        3.53349        0.30694
| 42>    H        9.21968        2.30026       -0.11225
| 43>    H        8.99593        1.36315       -1.62231
| 44>    H       10.44115        0.12721       -0.01700
| 45>    H        8.03440        0.16306        1.91702
| 46>    H        9.54799        1.10958        2.06142
| 47>    H        9.61190       -0.66686        2.15936
| 48>    H        9.15068       -1.17726       -1.61785
| 49>    H        7.68895       -1.11794       -0.63464
| 50>    H        8.74441       -2.47716        1.15887
| 51>    H       10.24112       -2.62522        0.14967
| 52>    H        8.85023       -3.73730       -1.64386
| 53>    H        7.36943       -3.49385       -0.63622
| 54>    H        8.33754       -4.91878        1.17423
| 55>    H        9.80921       -5.20474        0.16465
| 56>    H        6.90546       -5.97073       -0.57895
| 57>    H        8.19240       -7.09376       -0.00290
| 58>    H        8.37014       -6.27059       -1.59987
| 59> *
| 60> 
| 61> 
| 62>                          ****END OF INPUT****
================================================================================

                       *****************************
                       * Geometry Optimization Run *
                       *****************************

Geometry optimization settings:
Update method            Update   .... BFGS
Choice of coordinates    CoordSys .... Z-matrix Internals
Initial Hessian          InHess   .... Almoef's Model

Convergence Tolerances:
Energy Change            TolE     ....  5.0000e-06 Eh
Max. Gradient            TolMAXG  ....  3.0000e-04 Eh/bohr
RMS Gradient             TolRMSG  ....  1.0000e-04 Eh/bohr
Max. Displacement        TolMAXD  ....  4.0000e-03 bohr
RMS Displacement         TolRMSD  ....  2.0000e-03 bohr
Strict Convergence                ....  False
------------------------------------------------------------------------------
                        ORCA OPTIMIZATION COORDINATE SETUP
------------------------------------------------------------------------------

The optimization will be done in new redundant internal coordinates
Making redundant internal coordinates   ...  (new redundants) done
Evaluating the initial hessian          ...  (Almloef) done
Evaluating the coordinates              ...  done
Calculating the B-matrix                .... done
Calculating the G-matrix                .... done
Diagonalizing the G-matrix              .... done
Small eigenvalue found = 1.265e-03
Small eigenvalue found = 4.000e-03
Small eigenvalue found = 7.885e-03
Small eigenvalue found = 9.901e-03
Small eigenvalue found = 1.154e-02
Small eigenvalue found = 2.114e-02
Small eigenvalue found = 2.891e-02
The first mode is                       ....  101
The number of degrees of freedom        ....  132

    -----------------------------------------------------------------
                    Redundant Internal Coordinates


    -----------------------------------------------------------------
         Definition                    Initial Value    Approx d2E/dq
    -----------------------------------------------------------------
      1. B(C   1,F   0)                  1.3587         0.583342   
      2. B(C   2,C   1)                  1.4111         0.578226   
      3. B(C   3,C   2)                  1.4135         0.573215   
      4. B(F   4,C   3)                  1.3590         0.582676   
      5. B(C   5,C   3)                  1.4000         0.602292   
      6. B(F   6,C   5)                  1.3338         0.639166   
      7. B(C   7,C   2)                  1.3708         0.670578   
      8. B(C   8,C   7)                  1.4495         0.502103   
      9. B(N   9,C   8)                  1.1578         1.313129   
     10. B(N  10,C   7)                  1.3890         0.561597   
     11. B(C  11,N  10)                  1.1585         1.309794   
     12. B(C  12,C   1)                  1.3991         0.604266   
     13. B(F  13,C  12)                  1.3577         0.585450   
     14. B(C  14,C  12)                  1.4375         0.524741   
     15. B(C  14,C   5)                  1.4161         0.567653   
     16. B(C  15,C  14)                  1.3996         0.603216   
     17. B(C  16,C  15)                  1.5200         0.387550   
     18. B(N  17,C  16)                  1.2610         0.898964   
     19. B(C  18,C  15)                  1.5067         0.406911   
     20. B(O  19,C  18)                  1.3655         0.612335   
     21. B(C  20,O  19)                  1.3917         0.556015   
     22. B(C  21,C  20)                  1.5504         0.346559   
     23. B(C  22,C  21)                  1.5404         0.359513   
     24. B(C  23,C  21)                  1.5594         0.335294   
     25. B(C  24,C  23)                  1.5391         0.361325   
     26. B(C  25,C  24)                  1.5381         0.362675   
     27. B(C  26,C  25)                  1.5339         0.368295   
     28. B(C  27,C  26)                  1.5274         0.377176   
     29. B(O  28,C  18)                  1.2229         1.033774   
     30. B(H  29,C  20)                  1.1120         0.332157   
     31. B(H  30,C  20)                  1.1110         0.333401   
     32. B(H  31,C  21)                  1.1124         0.331666   
     33. B(H  32,C  22)                  1.1041         0.341906   
     34. B(H  33,C  22)                  1.1107         0.333713   
     35. B(H  34,C  22)                  1.1090         0.335840   
     36. B(H  35,C  23)                  1.1121         0.332064   
     37. B(H  36,C  23)                  1.0982         0.349370   
     38. B(H  37,C  24)                  1.1104         0.334061   
     39. B(H  38,C  24)                  1.1111         0.333187   
     40. B(H  39,C  25)                  1.1119         0.332247   
     41. B(H  40,F   4)                  3.1227         0.000171   
     42. B(H  40,C  25)                  1.1135         0.330360   
     43. B(H  41,C  26)                  1.1124         0.331712   
     44. B(H  42,C  26)                  1.1111         0.333192   
     45. B(H  43,C  27)                  1.1116         0.332634   
     46. B(H  44,C  27)                  1.1105         0.333917   
     47. B(H  45,C  27)                  1.1105         0.334035   
     48. A(F   0,C   1,C   2)          121.6579         0.419396   
     49. A(F   0,C   1,C  12)          116.5899         0.422706   
     50. A(C   2,C   1,C  12)          121.7521         0.426691   
     51. A(C   1,C   2,C   3)          116.4985         0.422682   
     52. A(C   1,C   2,C   7)          121.3367         0.434744   
     53. A(C   3,C   2,C   7)          122.1616         0.434063   
     54. A(F   4,C   3,C   5)          116.5701         0.422373   
     55. A(C   2,C   3,C   5)          121.6665         0.425776   
     56. A(C   2,C   3,F   4)          121.7554         0.418660   
     57. A(C   3,C   5,F   6)          114.7441         0.429429   
     58. A(C   3,C   5,C  14)          123.0411         0.425034   
     59. A(F   6,C   5,C  14)          121.9749         0.424895   
     60. A(C   2,C   7,C   8)          122.9606         0.423872   
     61. A(C   2,C   7,N  10)          121.8891         0.429641   
     62. A(C   8,C   7,N  10)          115.1503         0.408048   
     63. L(C   7,C   8,N   9,N  10, 1) 176.0232         0.475677   
     64. L(C   7,C   8,N   9,N  10, 2) 179.9858         0.475677   
     65. L(C   7,N  10,C  11,C   8, 1) 175.9183         0.482113   
     66. L(C   7,N  10,C  11,C   8, 2) 180.0136         0.482113   
     67. A(C   1,C  12,C  14)          122.5003         0.419353   
     68. A(F  13,C  12,C  14)          123.2423         0.412480   
     69. A(C   1,C  12,F  13)          114.2214         0.422979   
     70. A(C   5,C  14,C  15)          123.5605         0.425151   
     71. A(C  12,C  14,C  15)          121.9230         0.419223   
     72. A(C   5,C  14,C  12)          114.4967         0.414712   
     73. A(C  14,C  15,C  18)          127.1613         0.400752   
     74. A(C  16,C  15,C  18)          117.5359         0.371046   
     75. A(C  14,C  15,C  16)          115.2946         0.397331   
     76. L(C  15,C  16,N  17,C  18, 2) 180.0009         0.423693   
     77. L(C  15,C  16,N  17,C  18, 1) 180.0004         0.423693   
     78. A(C  15,C  18,O  19)          120.8309         0.399238   
     79. A(O  19,C  18,O  28)          119.6273         0.468977   
     80. A(C  15,C  18,O  28)          118.8066         0.438279   
     81. A(C  18,O  19,C  20)          127.6791         0.419214   
     82. A(C  21,C  20,H  30)          108.3104         0.316356   
     83. A(O  19,C  20,H  30)          108.2655         0.339950   
     84. A(C  21,C  20,H  29)          109.9447         0.316163   
     85. A(O  19,C  20,H  29)          111.4850         0.339737   
     86. A(H  29,C  20,H  30)          107.3730         0.283757   
     87. A(O  19,C  20,C  21)          111.3141         0.381706   
     88. A(C  23,C  21,H  31)          107.3338         0.314395   
     89. A(C  22,C  21,H  31)          106.1505         0.317981   
     90. A(C  20,C  21,H  31)          108.5897         0.316087   
     91. A(C  22,C  21,C  23)          114.6360         0.354405   
     92. A(C  20,C  21,C  23)          110.1109         0.352210   
     93. A(C  20,C  21,C  22)          109.7679         0.356398   
     94. A(H  33,C  22,H  34)          106.6504         0.284285   
     95. A(H  32,C  22,H  34)          108.7479         0.285360   
     96. A(C  21,C  22,H  34)          110.9527         0.318630   
     97. A(H  32,C  22,H  33)          107.9269         0.285078   
     98. A(C  21,C  22,H  33)          109.6687         0.318300   
     99. A(C  21,C  22,H  32)          112.6707         0.319563   
    100. A(H  35,C  23,H  36)          105.7755         0.285818   
    101. A(C  24,C  23,H  36)          106.8069         0.320956   
    102. A(C  21,C  23,H  36)          110.5229         0.317064   
    103. A(C  24,C  23,H  35)          109.4243         0.318304   
    104. A(C  21,C  23,H  35)          108.5224         0.314456   
    105. A(C  21,C  23,C  24)          115.3632         0.354707   
    106. A(C  25,C  24,H  37)          107.0111         0.318809   
    107. A(C  23,C  24,H  37)          109.1151         0.318616   
    108. A(C  23,C  24,C  25)          110.6514         0.359470   
    109. A(H  37,C  24,H  38)          109.2320         0.283981   
    110. A(C  25,C  24,H  38)          110.5133         0.318673   
    111. A(C  23,C  24,H  38)          110.2426         0.318479   
    112. A(C  24,C  25,C  26)          111.4976         0.360642   
    113. A(H  39,C  25,H  40)          108.6349         0.283366   
    114. A(C  26,C  25,H  40)          108.1927         0.319030   
    115. A(C  24,C  25,H  40)          108.8753         0.318231   
    116. A(C  26,C  25,H  39)          109.8592         0.319327   
    117. A(C  24,C  25,H  39)          109.7173         0.318526   
    118. A(C  25,C  26,C  27)          111.1833         0.363064   
    119. A(H  41,C  26,H  42)          108.7571         0.283671   
    120. A(C  27,C  26,H  42)          109.2336         0.320721   
    121. A(C  25,C  26,H  42)          109.7938         0.319475   
    122. A(C  27,C  26,H  41)          108.2811         0.320488   
    123. A(C  25,C  26,H  41)          109.5432         0.319243   
    124. A(H  44,C  27,H  45)          108.7569         0.284074   
    125. A(H  43,C  27,H  45)          109.1223         0.283904   
    126. A(C  26,C  27,H  45)          110.4753         0.320854   
    127. A(H  43,C  27,H  44)          108.4232         0.283889   
    128. A(C  26,C  27,H  44)          109.6654         0.320835   
    129. A(C  26,C  27,H  43)          110.3520         0.320633   
    130. D(C   3,C   2,C   1,F   0)   -179.4625         0.022964   
    131. D(C   7,C   2,C   1,F   0)     -0.0947         0.022964   
    132. D(C   3,C   2,C   1,C  12)      0.6487         0.022964   
    133. D(C   7,C   2,C   1,C  12)   -179.9834         0.022964   
    134. D(C   5,C   3,C   2,C   1)     -1.1087         0.022550   
    135. D(C   5,C   3,C   2,C   7)    179.5291         0.022550   
    136. D(F   4,C   3,C   2,C   1)    177.8263         0.022550   
    137. D(F   4,C   3,C   2,C   7)     -1.5359         0.022550   
    138. D(C  14,C   5,C   3,F   4)   -179.2201         0.025018   
    139. D(F   6,C   5,C   3,F   4)     -4.7529         0.025018   
    140. D(C  14,C   5,C   3,C   2)     -0.2327         0.025018   
    141. D(F   6,C   5,C   3,C   2)    174.2346         0.025018   
    142. D(N  10,C   7,C   2,C   1)      0.3703         0.031453   
    143. D(C   8,C   7,C   2,C   3)     -0.3758         0.031453   
    144. D(C   8,C   7,C   2,C   1)   -179.7076         0.031453   
    145. D(N  10,C   7,C   2,C   3)    179.7020         0.031453   
    146. D(C  14,C  12,C   1,C   2)      1.1589         0.025191   
    147. D(F  13,C  12,C   1,C   2)    179.0405         0.025191   
    148. D(F  13,C  12,C   1,F   0)     -0.8536         0.025191   
    149. D(C  14,C  12,C   1,F   0)   -178.7352         0.025191   
    150. D(C  15,C  14,C  12,F  13)      1.5095         0.018786   
    151. D(C   5,C  14,C  12,F  13)    179.9407         0.018786   
    152. D(C   5,C  14,C  12,C   1)     -2.3693         0.018786   
    153. D(C  15,C  14,C   5,F   6)      6.2428         0.022096   
    154. D(C  15,C  14,C   5,C   3)   -179.6821         0.022096   
    155. D(C  15,C  14,C  12,C   1)    179.1994         0.018786   
    156. D(C  12,C  14,C   5,F   6)   -172.1594         0.022096   
    157. D(C  12,C  14,C   5,C   3)      1.9158         0.022096   
    158. D(C  18,C  15,C  14,C   5)     10.6233         0.025099   
    159. D(C  16,C  15,C  14,C  12)      9.9799         0.025099   
    160. D(C  16,C  15,C  14,C   5)   -168.3069         0.025099   
    161. D(C  18,C  15,C  14,C  12)   -171.0899         0.025099   
    162. D(O  28,C  18,C  15,C  16)     13.7878         0.011364   
    163. D(O  19,C  18,C  15,C  16)   -156.3525         0.011364   
    164. D(O  19,C  18,C  15,C  14)     24.7383         0.011364   
    165. D(O  28,C  18,C  15,C  14)   -165.1214         0.011364   
    166. D(C  20,O  19,C  18,C  15)    176.3704         0.027461   
    167. D(C  20,O  19,C  18,O  28)      6.3102         0.027461   
    168. D(H  30,C  20,O  19,C  18)   -112.2907         0.024670   
    169. D(H  29,C  20,O  19,C  18)      5.6026         0.024670   
    170. D(C  21,C  20,O  19,C  18)    128.7690         0.024670   
    171. D(H  31,C  21,C  20,H  30)     60.0095         0.009692   
    172. D(H  31,C  21,C  20,H  29)    -57.0340         0.009692   
    173. D(H  31,C  21,C  20,O  19)    178.9229         0.009692   
    174. D(C  23,C  21,C  20,H  29)   -174.2858         0.009692   
    175. D(C  23,C  21,C  20,O  19)     61.6711         0.009692   
    176. D(C  22,C  21,C  20,H  30)    175.6502         0.009692   
    177. D(C  23,C  21,C  20,H  30)    -57.2424         0.009692   
    178. D(C  22,C  21,C  20,O  19)    -65.4364         0.009692   
    179. D(C  22,C  21,C  20,H  29)     58.6067         0.009692   
    180. D(H  34,C  22,C  21,C  23)     61.3161         0.010371   
    181. D(H  34,C  22,C  21,C  20)   -174.1584         0.010371   
    182. D(H  33,C  22,C  21,H  31)     60.5802         0.010371   
    183. D(H  33,C  22,C  21,C  23)    178.8774         0.010371   
    184. D(H  33,C  22,C  21,C  20)    -56.5971         0.010371   
    185. D(H  32,C  22,C  21,H  31)   -179.1848         0.010371   
    186. D(H  32,C  22,C  21,C  23)    -60.8875         0.010371   
    187. D(H  34,C  22,C  21,H  31)    -56.9812         0.010371   
    188. D(H  32,C  22,C  21,C  20)     63.6380         0.010371   
    189. D(H  35,C  23,C  21,C  20)     64.9711         0.009126   
    190. D(C  24,C  23,C  21,H  31)     70.1006         0.009126   
    191. D(C  24,C  23,C  21,C  22)    -47.5261         0.009126   
    192. D(C  24,C  23,C  21,C  20)   -171.8701         0.009126   
    193. D(H  36,C  23,C  21,H  31)   -168.6253         0.009126   
    194. D(H  36,C  23,C  21,C  22)     73.7479         0.009126   
    195. D(H  36,C  23,C  21,C  20)    -50.5960         0.009126   
    196. D(H  35,C  23,C  21,H  31)    -53.0582         0.009126   
    197. D(H  35,C  23,C  21,C  22)   -170.6850         0.009126   
    198. D(H  38,C  24,C  23,H  36)    175.7645         0.010469   
    199. D(H  38,C  24,C  23,H  35)     61.7070         0.010469   
    200. D(H  38,C  24,C  23,C  21)    -60.9729         0.010469   
    201. D(H  37,C  24,C  23,H  36)    -64.2770         0.010469   
    202. D(H  37,C  24,C  23,H  35)   -178.3345         0.010469   
    203. D(H  37,C  24,C  23,C  21)     58.9856         0.010469   
    204. D(C  25,C  24,C  23,H  36)     53.2080         0.010469   
    205. D(C  25,C  24,C  23,H  35)    -60.8495         0.010469   
    206. D(C  25,C  24,C  23,C  21)    176.4706         0.010469   
    207. D(H  40,C  25,C  24,H  38)   -178.6727         0.010542   
    208. D(H  40,C  25,C  24,H  37)     62.4945         0.010542   
    209. D(H  40,C  25,C  24,C  23)    -56.2742         0.010542   
    210. D(H  39,C  25,C  24,H  38)    -59.9049         0.010542   
    211. D(H  39,C  25,C  24,H  37)   -178.7377         0.010542   
    212. D(H  39,C  25,C  24,C  23)     62.4936         0.010542   
    213. D(C  26,C  25,C  24,H  38)     62.0335         0.010542   
    214. D(C  26,C  25,C  24,H  37)    -56.7993         0.010542   
    215. D(C  26,C  25,C  24,C  23)   -175.5680         0.010542   
    216. D(H  42,C  26,C  25,H  39)     60.4827         0.010849   
    217. D(H  42,C  26,C  25,C  24)    -61.3737         0.010849   
    218. D(H  41,C  26,C  25,H  40)    -61.7056         0.010849   
    219. D(H  41,C  26,C  25,H  39)    179.8491         0.010849   
    220. D(H  41,C  26,C  25,C  24)     57.9927         0.010849   
    221. D(C  27,C  26,C  25,H  40)     57.9338         0.010849   
    222. D(C  27,C  26,C  25,H  39)    -60.5115         0.010849   
    223. D(H  42,C  26,C  25,H  40)    178.9280         0.010849   
    224. D(C  27,C  26,C  25,C  24)    177.6321         0.010849   
    225. D(H  45,C  27,C  26,H  42)    -60.6684         0.011347   
    226. D(H  45,C  27,C  26,C  25)     60.6542         0.011347   
    227. D(H  44,C  27,C  26,H  42)     59.1954         0.011347   
    228. D(H  44,C  27,C  26,H  41)    -59.0941         0.011347   
    229. D(H  44,C  27,C  26,C  25)   -179.4821         0.011347   
    230. D(H  43,C  27,C  26,H  42)    178.5700         0.011347   
    231. D(H  45,C  27,C  26,H  41)   -178.9578         0.011347   
    232. D(H  43,C  27,C  26,H  41)     60.2806         0.011347   
    233. D(H  43,C  27,C  26,C  25)    -60.1074         0.011347   
    -----------------------------------------------------------------

Number of atoms                         .... 46
Number of degrees of freedom            .... 233

         *************************************************************
         *                GEOMETRY OPTIMIZATION CYCLE   1            *
         *************************************************************
---------------------------------
CARTESIAN COORDINATES (ANGSTROEM)
---------------------------------
  F      0.778890    0.229520   -0.344050
  C      2.109200    0.065780   -0.121570
  C      2.671760   -1.209380    0.099010
  C      4.065440   -1.252330    0.330670
  F      4.710410   -2.418210    0.598280
  C      4.848730   -0.092050    0.317740
  F      6.122020   -0.274070    0.670800
  C      1.896740   -2.340000    0.099970
  C      2.436280   -3.665770    0.328690
  N      2.792760   -4.753540    0.502530
  N      0.526510   -2.290560   -0.122350
  C     -0.617680   -2.331390   -0.299290
  C      2.892050    1.225350   -0.124740
  F      2.197700    2.365520   -0.372240
  C      4.315940    1.196510    0.070530
  C      5.089690    2.362540    0.048700
  C      4.303700    3.663540    0.043480
  N      3.651650    4.742820    0.039160
  C      6.593440    2.457210    0.052630
  O      7.360650    1.428140   -0.413150
  C      8.746060    1.389700   -0.540130
  C      9.338230    0.121980    0.127750
  C      9.105510    0.177800    1.649490
  C      8.784390   -1.159040   -0.568000
  C      9.138740   -2.488940    0.120880
  C      8.468390   -3.669640   -0.601760
  C      8.718890   -4.993160    0.131940
  C      8.002080   -6.151490   -0.558980
  O      7.115460    3.533490    0.306940
  H      9.219680    2.300260   -0.112250
  H      8.995930    1.363150   -1.622310
  H     10.441150    0.127210   -0.017000
  H      8.034400    0.163060    1.917020
  H      9.547990    1.109580    2.061420
  H      9.611900   -0.666860    2.159360
  H      9.150680   -1.177260   -1.617850
  H      7.688950   -1.117940   -0.634640
  H      8.744410   -2.477160    1.158870
  H     10.241120   -2.625220    0.149670
  H      8.850230   -3.737300   -1.643860
  H      7.369430   -3.493850   -0.636220
  H      8.337540   -4.918780    1.174230
  H      9.809210   -5.204740    0.164650
  H      6.905460   -5.970730   -0.578950
  H      8.192400   -7.093760   -0.002900
  H      8.370140   -6.270590   -1.599870

----------------------------
CARTESIAN COORDINATES (A.U.)
----------------------------
  NO LB      ZA    FRAG     MASS         X           Y           Z
   0 F     9.0000    0    18.998    1.471889    0.433730   -0.650160
   1 C     6.0000    0    12.011    3.985810    0.124306   -0.229734
   2 C     6.0000    0    12.011    5.048895   -2.285397    0.187102
   3 C     6.0000    0    12.011    7.682568   -2.366561    0.624876
   4 F     9.0000    0    18.998    8.901385   -4.569755    1.130585
   5 C     6.0000    0    12.011    9.162772   -0.173949    0.600442
   6 F     9.0000    0    18.998   11.568941   -0.517917    1.267628
   7 C     6.0000    0    12.011    3.584319   -4.421959    0.188916
   8 C     6.0000    0    12.011    4.603902   -6.927301    0.621134
   9 N     7.0000    0    14.007    5.277552   -8.982889    0.949644
  10 N     7.0000    0    14.007    0.994960   -4.328531   -0.231208
  11 C     6.0000    0    12.011   -1.167246   -4.405689   -0.565576
  12 C     6.0000    0    12.011    5.465182    2.315576   -0.235724
  13 F     9.0000    0    18.998    4.153051    4.470185   -0.703432
  14 C     6.0000    0    12.011    8.155945    2.261076    0.133282
  15 C     6.0000    0    12.011    9.618120    4.464554    0.092030
  16 C     6.0000    0    12.011    8.132814    6.923087    0.082165
  17 N     7.0000    0    14.007    6.900618    8.962631    0.074002
  18 C     6.0000    0    12.011   12.459796    4.643454    0.099456
  19 O     8.0000    0    15.999   13.909613    2.698793   -0.780740
  20 C     6.0000    0    12.011   16.527658    2.626152   -1.020698
  21 C     6.0000    0    12.011   17.646697    0.230509    0.241413
  22 C     6.0000    0    12.011   17.206920    0.335993    3.117084
  23 C     6.0000    0    12.011   16.600091   -2.190268   -1.073364
  24 C     6.0000    0    12.011   17.269716   -4.703415    0.228430
  25 C     6.0000    0    12.011   16.002938   -6.934615   -1.137162
  26 C     6.0000    0    12.011   16.476314   -9.435705    0.249330
  27 C     6.0000    0    12.011   15.121740  -11.624631   -1.056319
  28 O     8.0000    0    15.999   13.446271    6.677328    0.580033
  29 H     1.0000    0     1.008   17.422670    4.346861   -0.212122
  30 H     1.0000    0     1.008   16.999844    2.575980   -3.065722
  31 H     1.0000    0     1.008   19.730914    0.240392   -0.032125
  32 H     1.0000    0     1.008   15.182816    0.308139    3.622643
  33 H     1.0000    0     1.008   18.043086    2.096802    3.895519
  34 H     1.0000    0     1.008   18.163859   -1.260183    4.080599
  35 H     1.0000    0     1.008   17.292279   -2.224699   -3.057293
  36 H     1.0000    0     1.008   14.530010   -2.112600   -1.199296
  37 H     1.0000    0     1.008   16.524540   -4.681154    2.189947
  38 H     1.0000    0     1.008   19.352912   -4.960947    0.282835
  39 H     1.0000    0     1.008   16.724511   -7.062473   -3.106445
  40 H     1.0000    0     1.008   13.926204   -6.602420   -1.202282
  41 H     1.0000    0     1.008   15.755667   -9.295147    2.218973
  42 H     1.0000    0     1.008   18.536720   -9.835533    0.311143
  43 H     1.0000    0     1.008   13.049428  -11.283045   -1.094057
  44 H     1.0000    0     1.008   15.481392  -13.405264   -0.005480
  45 H     1.0000    0     1.008   15.817272  -11.849698   -3.023316

--------------------------------
INTERNAL COORDINATES (ANGSTROEM)
--------------------------------
 F      0   0   0     0.000000000000     0.00000000     0.00000000
 C      1   0   0     1.358687909014     0.00000000     0.00000000
 C      2   1   0     1.411085509670   121.65790304     0.00000000
 C      3   2   1     1.413454987080   116.49846427   180.53747000
 F      4   3   2     1.358998744444   121.75544401   177.82633068
 C      4   3   2     1.399985745427   121.66645312   358.89134809
 F      6   4   3     1.333810356872   114.74413069   174.23456544
 C      3   2   1     1.370751073828   121.33674174   359.90532841
 C      8   3   2     1.449511070292   122.96059797   180.29244143
 N      9   8   3     1.157817735613   176.02321271   180.19237389
 N      8   3   2     1.389028707011   121.88905268     0.37028168
 C     11   8   3     1.158510081354   175.91830243   179.81214037
 C      2   1   3     1.399094977584   116.58987809   179.89422727
 F     13   2   1     1.357706080637   114.22137429   359.14636073
 C      6   4   3     1.416109050109   123.04112561   359.76734206
 C     15   6   4     1.399568352136   123.56045325   180.31790760
 C     16  15   6     1.520002805425   115.29464978   191.69305260
 N     17  16  15     1.260965179258   179.99937303    48.09342960
 C     16  15   6     1.506732197937   127.16131182    10.62326905
 O     19  16  15     1.365484257471   120.83089239    24.73828676
 C     20  19  16     1.391747973629   127.67906570   176.37039522
 C     21  20  19     1.550433165828   111.31408088   128.76901552
 C     22  21  20     1.540443799170   109.76785968   294.56364602
 C     22  21  20     1.559429077740   110.11091596    61.67108286
 C     24  22  21     1.539075562440   115.36323898   188.12994953
 C     25  24  22     1.538060526150   110.65135254   176.47058807
 C     26  25  24     1.533874548456   111.49764290   184.43201487
 C     27  26  25     1.527388428462   111.18326364   177.63210958
 O     19  16  15     1.222929717891   118.80659427   194.87861840
 H     21  20  19     1.111987730328   111.48503986     5.60258009
 H     21  20  19     1.110969608855   108.26551232   247.70932041
 H     22  21  20     1.112390417884   108.58967256   178.92293332
 H     23  22  21     1.104113309674   112.67073886    63.63798680
 H     23  22  21     1.110715464779   109.66870816   303.40289320
 H     23  22  21     1.108985466361   110.95269148   185.84157372
 H     24  22  21     1.112063557087   108.52238689    64.97107397
 H     24  22  21     1.098234443641   110.52291873   309.40398932
 H     25  24  22     1.110431518555   109.11510257    58.98561897
 H     25  24  22     1.111144800150   110.24260113   299.02707522
 H     26  25  24     1.111913697730   109.71728584    62.49357528
 H     26  25  24     1.113464277514   108.87530956   303.72578170
 H     27  26  25     1.112352754750   109.54318641    57.99267992
 H     27  26  25     1.111140739466   109.79380834   298.62630738
 H     28  27  26     1.111597230520   110.35198838   299.89258073
 H     28  27  26     1.110549153212   109.66538503   180.51793267
 H     28  27  26     1.110452594981   110.47532057    60.65421507

---------------------------
INTERNAL COORDINATES (A.U.)
---------------------------
 F      0   0   0     0.000000000000     0.00000000     0.00000000
 C      1   0   0     2.567548049506     0.00000000     0.00000000
 C      2   1   0     2.666565164821   121.65790304     0.00000000
 C      3   2   1     2.671042828206   116.49846427   180.53747000
 F      4   3   2     2.568135443342   121.75544401   177.82633068
 C      4   3   2     2.645589650251   121.66645312   358.89134809
 F      6   4   3     2.520536289077   114.74413069   174.23456544
 C      3   2   1     2.590344127313   121.33674174   359.90532841
 C      8   3   2     2.739178950940   122.96059797   180.29244143
 N      9   8   3     2.187958433305   176.02321271   180.19237389
 N      8   3   2     2.624883848405   121.88905268     0.37028168
 C     11   8   3     2.189266777147   175.91830243   179.81214037
 C      2   1   3     2.643906342978   116.58987809   179.89422727
 F     13   2   1     2.565692662764   114.22137429   359.14636073
 C      6   4   3     2.676058280473   123.04112561   359.76734206
 C     15   6   4     2.644800891240   123.56045325   180.31790760
 C     16  15   6     2.872389025045   115.29464978   191.69305260
 N     17  16  15     2.382878853208   179.99937303    48.09342960
 C     16  15   6     2.847311211262   127.16131182    10.62326905
 O     19  16  15     2.580391286800   120.83089239    24.73828676
 C     20  19  16     2.630022517598   127.67906570   176.37039522
 C     21  20  19     2.929894072364   111.31408088   128.76901552
 C     22  21  20     2.911016905128   109.76785968   294.56364602
 C     22  21  20     2.946893882201   110.11091596    61.67108286
 C     24  22  21     2.908431312422   115.36323898   188.12994953
 C     25  24  22     2.906513171818   110.65135254   176.47058807
 C     26  25  24     2.898602820373   111.49764290   184.43201487
 C     27  26  25     2.886345829914   111.18326364   177.63210958
 O     19  16  15     2.311002247847   118.80659427   194.87861840
 H     21  20  19     2.101352274601   111.48503986     5.60258009
 H     21  20  19     2.099428303846   108.26551232   247.70932041
 H     22  21  20     2.102113243799   108.58967256   178.92293332
 H     23  22  21     2.086471776102   112.67073886    63.63798680
 H     23  22  21     2.098948041144   109.66870816   303.40289320
 H     23  22  21     2.095678817921   110.95269148   185.84157372
 H     24  22  21     2.101495566408   108.52238689    64.97107397
 H     24  22  21     2.075362329321   110.52291873   309.40398932
 H     25  24  22     2.098411460543   109.11510257    58.98561897
 H     25  24  22     2.099759367414   110.24260113   299.02707522
 H     26  25  24     2.101212373266   109.71728584    62.49357528
 H     26  25  24     2.104142544406   108.87530956   303.72578170
 H     27  26  25     2.102042070790   109.54318641    57.99267992
 H     27  26  25     2.099751693833   109.79380834   298.62630738
 H     28  27  26     2.100614336908   110.35198838   299.89258073
 H     28  27  26     2.098633757829   109.66538503   180.51793267
 H     28  27  26     2.098451289216   110.47532057    60.65421507

---------------------
BASIS SET INFORMATION
---------------------
There are 5 groups of distinct atoms

 Group   1 Type F   : 11s6p2d1f contracted to 5s3p2d1f pattern {62111/411/11/1}
 Group   2 Type C   : 11s6p2d1f contracted to 5s3p2d1f pattern {62111/411/11/1}
 Group   3 Type N   : 11s6p2d1f contracted to 5s3p2d1f pattern {62111/411/11/1}
 Group   4 Type O   : 11s6p2d1f contracted to 5s3p2d1f pattern {62111/411/11/1}
 Group   5 Type H   : 5s1p contracted to 3s1p pattern {311/1}

Atom   0F    basis set group =>   1
Atom   1C    basis set group =>   2
Atom   2C    basis set group =>   2
Atom   3C    basis set group =>   2
Atom   4F    basis set group =>   1
Atom   5C    basis set group =>   2
Atom   6F    basis set group =>   1
Atom   7C    basis set group =>   2
Atom   8C    basis set group =>   2
Atom   9N    basis set group =>   3
Atom  10N    basis set group =>   3
Atom  11C    basis set group =>   2
Atom  12C    basis set group =>   2
Atom  13F    basis set group =>   1
Atom  14C    basis set group =>   2
Atom  15C    basis set group =>   2
Atom  16C    basis set group =>   2
Atom  17N    basis set group =>   3
Atom  18C    basis set group =>   2
Atom  19O    basis set group =>   4
Atom  20C    basis set group =>   2
Atom  21C    basis set group =>   2
Atom  22C    basis set group =>   2
Atom  23C    basis set group =>   2
Atom  24C    basis set group =>   2
Atom  25C    basis set group =>   2
Atom  26C    basis set group =>   2
Atom  27C    basis set group =>   2
Atom  28O    basis set group =>   4
Atom  29H    basis set group =>   5
Atom  30H    basis set group =>   5
Atom  31H    basis set group =>   5
Atom  32H    basis set group =>   5
Atom  33H    basis set group =>   5
Atom  34H    basis set group =>   5
Atom  35H    basis set group =>   5
Atom  36H    basis set group =>   5
Atom  37H    basis set group =>   5
Atom  38H    basis set group =>   5
Atom  39H    basis set group =>   5
Atom  40H    basis set group =>   5
Atom  41H    basis set group =>   5
Atom  42H    basis set group =>   5
Atom  43H    basis set group =>   5
Atom  44H    basis set group =>   5
Atom  45H    basis set group =>   5
---------------------------------
AUXILIARY/J BASIS SET INFORMATION
---------------------------------
There are 5 groups of distinct atoms

 Group   1 Type F   : 12s5p4d2f1g contracted to 6s4p3d1f1g pattern {711111/2111/211/2/1}
 Group   2 Type C   : 12s5p4d2f1g contracted to 6s4p3d1f1g pattern {711111/2111/211/2/1}
 Group   3 Type N   : 12s5p4d2f1g contracted to 6s4p3d1f1g pattern {711111/2111/211/2/1}
 Group   4 Type O   : 12s5p4d2f1g contracted to 6s4p3d1f1g pattern {711111/2111/211/2/1}
 Group   5 Type H   : 5s2p1d contracted to 3s1p1d pattern {311/2/1}

Atom   0F    basis set group =>   1
Atom   1C    basis set group =>   2
Atom   2C    basis set group =>   2
Atom   3C    basis set group =>   2
Atom   4F    basis set group =>   1
Atom   5C    basis set group =>   2
Atom   6F    basis set group =>   1
Atom   7C    basis set group =>   2
Atom   8C    basis set group =>   2
Atom   9N    basis set group =>   3
Atom  10N    basis set group =>   3
Atom  11C    basis set group =>   2
Atom  12C    basis set group =>   2
Atom  13F    basis set group =>   1
Atom  14C    basis set group =>   2
Atom  15C    basis set group =>   2
Atom  16C    basis set group =>   2
Atom  17N    basis set group =>   3
Atom  18C    basis set group =>   2
Atom  19O    basis set group =>   4
Atom  20C    basis set group =>   2
Atom  21C    basis set group =>   2
Atom  22C    basis set group =>   2
Atom  23C    basis set group =>   2
Atom  24C    basis set group =>   2
Atom  25C    basis set group =>   2
Atom  26C    basis set group =>   2
Atom  27C    basis set group =>   2
Atom  28O    basis set group =>   4
Atom  29H    basis set group =>   5
Atom  30H    basis set group =>   5
Atom  31H    basis set group =>   5
Atom  32H    basis set group =>   5
Atom  33H    basis set group =>   5
Atom  34H    basis set group =>   5
Atom  35H    basis set group =>   5
Atom  36H    basis set group =>   5
Atom  37H    basis set group =>   5
Atom  38H    basis set group =>   5
Atom  39H    basis set group =>   5
Atom  40H    basis set group =>   5
Atom  41H    basis set group =>   5
Atom  42H    basis set group =>   5
Atom  43H    basis set group =>   5
Atom  44H    basis set group =>   5
Atom  45H    basis set group =>   5
--------------------------------------------------------------------------
[[5746,1],0]: A high-performance Open MPI point-to-point messaging module
was unable to find any relevant network interfaces:

Module: OpenFabrics (openib)
  Host: compute-0-9

Another transport will be used instead, although this may result in
lower performance.

NOTE: You can disable this warning by setting the MCA parameter
btl_base_warn_component_unused to 0.
--------------------------------------------------------------------------


           ************************************************************
           *        Program running with 8 parallel MPI-processes     *
           *            working without local directories             *
           ************************************************************
------------------------------------------------------------------------------
                           ORCA GTO INTEGRAL CALCULATION
------------------------------------------------------------------------------

                         BASIS SET STATISTICS AND STARTUP INFO

 # of primitive gaussian shells          ...  682
 # of primitive gaussian functions       ... 1470
 # of contracted shells                  ...  387
 # of contracted basis functions         ... 1001
 Highest angular momentum                ...    3
 Maximum contraction depth               ...    6
 Integral package used                   ... LIBINT
 Integral threshhold            Thresh   ...  2.500e-11
 Primitive cut-off              TCut     ...  2.500e-12


------------------------------ INTEGRAL EVALUATION ----------------------------


 * One electron integrals 
 Pre-screening matrix                    ... done
 Shell pair data                         ... done (   0.031 sec)

[compute-0-9.local:45917] 7 more processes have sent help message help-mpi-btl-base.txt / btl:no-nics
[compute-0-9.local:45917] Set MCA parameter "orte_base_help_aggregate" to 0 to see all help / error messages
--------------------------------------------------------------------------
[[5721,1],0]: A high-performance Open MPI point-to-point messaging module
was unable to find any relevant network interfaces:

Module: OpenFabrics (openib)
  Host: compute-0-9

Another transport will be used instead, although this may result in
lower performance.

NOTE: You can disable this warning by setting the MCA parameter
btl_base_warn_component_unused to 0.
--------------------------------------------------------------------------


           ************************************************************
           *        Program running with 8 parallel MPI-processes     *
           *            working without local directories             *
           ************************************************************
-------------------------------------------------------------------------------
                                 ORCA SCF
-------------------------------------------------------------------------------

------------
SCF SETTINGS
------------
Hamiltonian:
 Density Functional     Method          .... DFT(GTOs)
 Exchange Functional    Exchange        .... WB97X-D3
 Correlation Functional Correlation     .... WB97X-D3
 Gradients option       PostSCFGGA      .... off
 Hybrid DFT is turned on
   Fraction HF Exchange ScalHFX         ....  0.195728
   Scaling of DF-GGA-X  ScalDFX         ....  0.000000
   Scaling of DF-GGA-C  ScalDFC         ....  1.000000
   Scaling of DF-LDA-C  ScalLDAC        ....  1.000000
   Perturbative correction              ....  0.000000
   Density functional embedding theory  .... OFF
 Long-range corrected/Screened/Range-Separated Hybrid DFT is turned on
   Amount of maximum screened exact exchange              ....  0.804272
   Range separation parameter mu (erf(mu*r12)/r12)        ....  0.250000


General Settings:
 Integral files         IntName         .... F4OCTCNQ
 Hartree-Fock type      HFTyp           .... RHF
 Total Charge           Charge          ....    0
 Multiplicity           Mult            ....    1
 Number of Electrons    NEL             ....  210
 Basis Dimension        Dim             .... 1001
 Nuclear Repulsion      ENuc            ....   2754.7656233116 Eh

Convergence Acceleration:
 DIIS                   CNVDIIS         .... on
   Start iteration      DIISMaxIt       ....    12
   Startup error        DIISStart       ....  0.200000
   # of expansion vecs  DIISMaxEq       ....     5
   Bias factor          DIISBfac        ....   1.050
   Max. coefficient     DIISMaxC        ....  10.000
 Newton-Raphson         CNVNR           .... off
 SOSCF                  CNVSOSCF        .... on
   Start iteration      SOSCFMaxIt      ....   150
   Startup grad/error   SOSCFStart      ....  0.003300
 Level Shifting         CNVShift        .... on
   Level shift para.    LevelShift      ....    0.2500
   Turn off err/grad.   ShiftErr        ....    0.0010
 Zerner damping         CNVZerner       .... off
 Static damping         CNVDamp         .... on
   Fraction old density DampFac         ....    0.7000
   Max. Damping (<1)    DampMax         ....    0.9800
   Min. Damping (>=0)   DampMin         ....    0.0000
   Turn off err/grad.   DampErr         ....    0.1000
 Fernandez-Rico         CNVRico         .... off

SCF Procedure:
 Maximum # iterations   MaxIter         ....   125
 SCF integral mode      SCFMode         .... Direct
   Integral package                     .... LIBINT
 Reset frequency        DirectResetFreq ....    20
 Integral Threshold     Thresh          ....  2.500e-11 Eh
 Primitive CutOff       TCut            ....  2.500e-12 Eh

Convergence Tolerance:
 Convergence Check Mode ConvCheckMode   .... Total+1el-Energy
 Convergence forced     ConvForced      .... 0
 Energy Change          TolE            ....  1.000e-08 Eh
 1-El. energy change                    ....  1.000e-05 Eh
 Orbital Gradient       TolG            ....  1.000e-05
 Orbital Rotation angle TolX            ....  1.000e-05
 DIIS Error             TolErr          ....  5.000e-07


Diagonalization of the overlap matrix:
Smallest eigenvalue                        ... 1.011e-05
Time for diagonalization                   ...    2.052 sec
Threshold for overlap eigenvalues          ... 1.000e-08
Number of eigenvalues below threshold      ... 0
[compute-0-9.local:45942] 7 more processes have sent help message help-mpi-btl-base.txt / btl:no-nics
[compute-0-9.local:45942] Set MCA parameter "orte_base_help_aggregate" to 0 to see all help / error messages
Time for construction of square roots      ...    1.067 sec
Total time needed                          ...    3.124 sec

-------------------
DFT GRID GENERATION
-------------------

General Integration Accuracy     IntAcc      ...  4.340
Radial Grid Type                 RadialGrid  ... Gauss-Chebyshev
Angular Grid (max. acc.)         AngularGrid ... Lebedev-110
Angular grid pruning method      GridPruning ... 3 (G Style)
Weight generation scheme         WeightScheme... Becke
Basis function cutoff            BFCut       ...    1.0000e-11
Integration weight cutoff        WCut        ...    1.0000e-14
Grids for H and He will be reduced by one unit

# of grid points (after initial pruning)     ...  62116 (   0.0 sec)
# of grid points (after weights+screening)   ...  55455 (   0.4 sec)
nearest neighbour list constructed           ...    0.0 sec
Grid point re-assignment to atoms done       ...    0.0 sec
Grid point division into batches done        ...    0.1 sec
Reduced shell lists constructed in    0.5 sec

Total number of grid points                  ...    55455
Total number of batches                      ...      891
Average number of points per batch           ...       62
Average number of grid points per atom       ...     1206
Average number of shells per batch           ...   162.58 (42.01%)
Average number of basis functions per batch  ...   424.92 (42.45%)
Average number of large shells per batch     ...   103.64 (63.74%)
Average number of large basis fcns per batch ...   278.77 (65.61%)
Maximum spatial batch extension              ...  16.01, 11.09, 16.85 au
Average spatial batch extension              ...   0.34,  0.32,  0.41 au

Time for grid setup =    1.033 sec

------------------------------
INITIAL GUESS: MODEL POTENTIAL
------------------------------
Loading Hartree-Fock densities                     ... done
Calculating cut-offs                               ... done
Setting up the integral package                    ... done
Initializing the effective Hamiltonian             ... done
Starting the Coulomb interaction                   ... done (   1.2 sec)
Reading the grid                                   ... done
Mapping shells                                     ... done
Starting the XC term evaluation                    ... done (   1.0 sec)
  promolecular density results
     # of electrons  =    210.005809542
     EX              =   -182.937583196
     EC              =     -7.060034549
     EX+EC           =   -189.997617746
Transforming the Hamiltonian                       ... done (   0.6 sec)
Diagonalizing the Hamiltonian                      ... done (   1.9 sec)
Back transforming the eigenvectors                 ... done (   0.5 sec)
Now organizing SCF variables                       ... done
                      ------------------
                      INITIAL GUESS DONE (   6.6 sec)
                      ------------------

--------------------
CPCM SOLVATION MODEL
--------------------
CPCM parameters:
  Epsilon                                         ...       3.0000
  Refrac                                          ...       1.3300
  Rsolv                                           ...       1.3000
  Surface type                                    ...    GEPOL SES
  Epsilon function type                           ...         CPCM
Radii:
 Radius for F  used is    3.2503 Bohr (=   1.7200 Ang.)
 Radius for C  used is    3.7795 Bohr (=   2.0000 Ang.)
 Radius for N  used is    3.4582 Bohr (=   1.8300 Ang.)
 Radius for O  used is    3.2503 Bohr (=   1.7200 Ang.)
 Radius for H  used is    2.4566 Bohr (=   1.3000 Ang.)
Calculating surface                               ...        done! (  0.5s)
GEPOL surface points                              ...         2164
GEPOL Volume                                      ...    3111.5043
GEPOL Surface-area                                ...    1500.4987
Calculating surface distance matrix               ...        done! (  0.0s)
Performing Cholesky decomposition & store         ...        done! (  2.1s)
Overall time for CPCM initialization              ...                 2.6s
--------------
SCF ITERATIONS
--------------
ITER       Energy         Delta-E        Max-DP      RMS-DP      [F,P]     Damp
               ***  Starting incremental Fock matrix formation  ***
  0  -1485.7138212218   0.000000000000 0.05517360  0.00049108  0.2797599 0.7000
  1  -1485.9885658205  -0.274744598706 0.03812076  0.00038004  0.1290933 0.7000
                               ***Turning on DIIS***
  2  -1486.1108274653  -0.122261644734 0.05740759  0.00074359  0.0524075 0.0000
  3  -1486.3190320908  -0.208204625517 0.03200825  0.00027805  0.0645985 0.0000
  4  -1486.3512995854  -0.032267494625 0.00848250  0.00009930  0.0217282 0.0000
  5  -1486.3535197613  -0.002220175891 0.00529964  0.00004891  0.0066686 0.0000
  6  -1486.3539493718  -0.000429610530 0.00311328  0.00002931  0.0018627 0.0000
                      *** Initiating the SOSCF procedure ***
                           *** Shutting down DIIS ***
                      *** Re-Reading the Fockian *** 
                      *** Removing any level shift *** 
ITER      Energy       Delta-E        Grad      Rot      Max-DP    RMS-DP
  7  -1486.35411425  -0.0001648817  0.002821  0.002821  0.001648  0.000018
               *** Restarting incremental Fock matrix formation ***
  8  -1486.35419246  -0.0000782114  0.001413  0.004127  0.000895  0.000012
  9  -1486.35422889  -0.0000364250  0.000643  0.005764  0.001415  0.000018
 10  -1486.35424073  -0.0000118417  0.000401  0.001644  0.000592  0.000005
 11  -1486.35424674  -0.0000060054  0.000172  0.000677  0.000250  0.000003
 12  -1486.35424697  -0.0000002279  0.000114  0.000310  0.000133  0.000001
 13  -1486.35424752  -0.0000005526  0.000021  0.000119  0.000075  0.000001
 14  -1486.35424755  -0.0000000297  0.000035  0.000131  0.000038  0.000000
 15  -1486.35424760  -0.0000000480  0.000008  0.000072  0.000025  0.000000
 16  -1486.35424760  -0.0000000012  0.000004  0.000015  0.000011  0.000000
                  ***Gradient check signals convergence***
              ***Rediagonalizing the Fockian in SOSCF/NRSCF***

               *****************************************************
               *                     SUCCESS                       *
               *           SCF CONVERGED AFTER  17 CYCLES          *
               *****************************************************

Setting up the final grid:

General Integration Accuracy     IntAcc      ...  4.670
Radial Grid Type                 RadialGrid  ... Gauss-Chebyshev
Angular Grid (max. acc.)         AngularGrid ... Lebedev-302
Angular grid pruning method      GridPruning ... 3 (G Style)
Weight generation scheme         WeightScheme... Becke
Basis function cutoff            BFCut       ...    1.0000e-11
Integration weight cutoff        WCut        ...    1.0000e-14
Grids for H and He will be reduced by one unit

# of grid points (after initial pruning)     ... 238086 (   0.0 sec)
# of grid points (after weights+screening)   ... 207421 (   1.3 sec)
nearest neighbour list constructed           ...    0.0 sec
Grid point re-assignment to atoms done       ...    0.1 sec
Grid point division into batches done        ...    1.2 sec
Reduced shell lists constructed in    2.4 sec

Total number of grid points                  ...   207421
Total number of batches                      ...     3267
Average number of points per batch           ...       63
Average number of grid points per atom       ...     4509
Average number of shells per batch           ...   150.93 (39.00%)
Average number of basis functions per batch  ...   390.55 (39.02%)
Average number of large shells per batch     ...    94.52 (62.63%)
Average number of large basis fcns per batch ...   250.54 (64.15%)
Maximum spatial batch extension              ...  11.51, 10.37, 22.27 au
Average spatial batch extension              ...   0.22,  0.22,  0.27 au

Final grid set up in    4.4 sec
Final integration                            ... done (   4.2 sec)
Change in XC energy                          ...     0.003255143
Integrated number of electrons               ...   209.999944949
Previous integrated no of electrons          ...   210.002184284

----------------
TOTAL SCF ENERGY
----------------

Total Energy       :        -1486.35099246 Eh          -40445.66672 eV

Components:
Nuclear Repulsion  :         2754.76562331 Eh           74960.98355 eV
Electronic Energy  :        -4241.11661577 Eh         -115406.65028 eV
One Electron Energy:        -7507.20594940 Eh         -204281.45935 eV
Two Electron Energy:         3266.08933363 Eh           88874.80908 eV
CPCM Dielectric    :           -0.01941510 Eh              -0.52831 eV

Virial components:
Potential Energy   :        -2965.24566234 Eh          -80688.43659 eV
Kinetic Energy     :         1478.89466989 Eh           40242.76987 eV
Virial Ratio       :            2.00504182


DFT components:
N(Alpha)           :      104.999972474504 electrons
N(Beta)            :      104.999972474504 electrons
N(Total)           :      209.999944949008 electrons
E(XC)              :     -134.976058125006 Eh       
DFET-embed. en.    :        0.000000000000 Eh       
CPCM Solvation Model Properties:
Surface-charge          :           -0.03934378
Charge-correction       :            0.00024423 Eh               0.00665 eV
Free-energy (cav+disp)  :            0.00663429 Eh               0.18053 eV
Corrected G(solv)       :        -1486.34411394 Eh          -40445.47955 eV

---------------
SCF CONVERGENCE
---------------

  Last Energy change         ...   -4.5454e-09  Tolerance :   1.0000e-08
  Last MAX-Density change    ...    1.1516e-05  Tolerance :   1.0000e-07
  Last RMS-Density change    ...    1.5175e-07  Tolerance :   5.0000e-09
  Last Orbital Gradient      ...    1.1820e-06  Tolerance :   1.0000e-05
  Last Orbital Rotation      ...    4.7999e-06  Tolerance :   1.0000e-05

             **** THE GBW FILE WAS UPDATED (F4OCTCNQ.gbw) ****
             **** DENSITY FILE WAS UPDATED (F4OCTCNQ.scfp) ****
             **** ENERGY FILE WAS UPDATED (F4OCTCNQ.en.tmp) ****
             **** THE GBW FILE WAS UPDATED (F4OCTCNQ.gbw) ****
             **** DENSITY FILE WAS UPDATED (F4OCTCNQ.scfp) ****
----------------
ORBITAL ENERGIES
----------------

  NO   OCC          E(Eh)            E(eV) 
   0   2.0000     -24.857080      -676.3955 
   1   2.0000     -24.851369      -676.2401 
   2   2.0000     -24.850327      -676.2118 
   3   2.0000     -24.848694      -676.1673 
   4   2.0000     -19.296359      -525.0806 
   5   2.0000     -19.248308      -523.7731 
   6   2.0000     -14.505781      -394.7224 
   7   2.0000     -14.474808      -393.8795 
   8   2.0000     -14.469592      -393.7376 
   9   2.0000     -10.460329      -284.6400 
  10   2.0000     -10.447970      -284.3037 
  11   2.0000     -10.444470      -284.2085 
  12   2.0000     -10.442895      -284.1656 
  13   2.0000     -10.442252      -284.1481 
  14   2.0000     -10.440839      -284.1097 
  15   2.0000     -10.405265      -283.1416 
  16   2.0000     -10.400409      -283.0095 
  17   2.0000     -10.395707      -282.8816 
  18   2.0000     -10.383727      -282.5556 
  19   2.0000     -10.367750      -282.1208 
  20   2.0000     -10.361242      -281.9437 
  21   2.0000     -10.341532      -281.4074 
  22   2.0000     -10.290733      -280.0251 
  23   2.0000     -10.269256      -279.4407 
  24   2.0000     -10.268696      -279.4254 
  25   2.0000     -10.267520      -279.3934 
  26   2.0000     -10.267014      -279.3796 
  27   2.0000     -10.266767      -279.3729 
  28   2.0000     -10.260875      -279.2126 
  29   2.0000      -1.410042       -38.3692 
  30   2.0000      -1.401303       -38.1314 
  31   2.0000      -1.391621       -37.8679 
  32   2.0000      -1.383659       -37.6513 
  33   2.0000      -1.245108       -33.8811 
  34   2.0000      -1.158373       -31.5209 
  35   2.0000      -1.142250       -31.0822 
  36   2.0000      -1.074467       -29.2377 
  37   2.0000      -1.065685       -28.9988 
  38   2.0000      -1.026025       -27.9196 
  39   2.0000      -1.005326       -27.3563 
  40   2.0000      -0.957172       -26.0460 
  41   2.0000      -0.937173       -25.5018 
  42   2.0000      -0.928461       -25.2647 
  43   2.0000      -0.910223       -24.7684 
  44   2.0000      -0.892258       -24.2796 
  45   2.0000      -0.859428       -23.3862 
  46   2.0000      -0.833297       -22.6752 
  47   2.0000      -0.818004       -22.2590 
  48   2.0000      -0.814655       -22.1679 
  49   2.0000      -0.785710       -21.3802 
  50   2.0000      -0.775804       -21.1107 
  51   2.0000      -0.743570       -20.2336 
  52   2.0000      -0.737028       -20.0556 
  53   2.0000      -0.722336       -19.6558 
  54   2.0000      -0.715269       -19.4635 
  55   2.0000      -0.699265       -19.0280 
  56   2.0000      -0.684715       -18.6320 
  57   2.0000      -0.679280       -18.4841 
  58   2.0000      -0.674953       -18.3664 
  59   2.0000      -0.665368       -18.1056 
  60   2.0000      -0.660460       -17.9720 
  61   2.0000      -0.656428       -17.8623 
  62   2.0000      -0.649426       -17.6718 
  63   2.0000      -0.636201       -17.3119 
  64   2.0000      -0.629981       -17.1427 
  65   2.0000      -0.616490       -16.7755 
  66   2.0000      -0.610495       -16.6124 
  67   2.0000      -0.602572       -16.3968 
  68   2.0000      -0.593211       -16.1421 
  69   2.0000      -0.583008       -15.8645 
  70   2.0000      -0.581585       -15.8257 
  71   2.0000      -0.577860       -15.7244 
  72   2.0000      -0.560305       -15.2467 
  73   2.0000      -0.554853       -15.0983 
  74   2.0000      -0.551029       -14.9943 
  75   2.0000      -0.548853       -14.9351 
  76   2.0000      -0.541449       -14.7336 
  77   2.0000      -0.535996       -14.5852 
  78   2.0000      -0.527206       -14.3460 
  79   2.0000      -0.518611       -14.1121 
  80   2.0000      -0.513102       -13.9622 
  81   2.0000      -0.506884       -13.7930 
  82   2.0000      -0.501079       -13.6350 
  83   2.0000      -0.495338       -13.4788 
  84   2.0000      -0.492681       -13.4065 
  85   2.0000      -0.491426       -13.3724 
  86   2.0000      -0.480985       -13.0883 
  87   2.0000      -0.477890       -13.0040 
  88   2.0000      -0.476281       -12.9603 
  89   2.0000      -0.465482       -12.6664 
  90   2.0000      -0.458760       -12.4835 
  91   2.0000      -0.450194       -12.2504 
  92   2.0000      -0.443767       -12.0755 
  93   2.0000      -0.440992       -12.0000 
  94   2.0000      -0.436900       -11.8887 
  95   2.0000      -0.434731       -11.8296 
  96   2.0000      -0.431001       -11.7281 
  97   2.0000      -0.416745       -11.3402 
  98   2.0000      -0.416615       -11.3367 
  99   2.0000      -0.412684       -11.2297 
 100   2.0000      -0.407379       -11.0853 
 101   2.0000      -0.399366       -10.8673 
 102   2.0000      -0.386443       -10.5157 
 103   2.0000      -0.383184       -10.4270 
 104   2.0000      -0.333347        -9.0708 
 105   0.0000      -0.126997        -3.4558 
 106   0.0000       0.009491         0.2583 
 107   0.0000       0.017885         0.4867 
 108   0.0000       0.043574         1.1857 
 109   0.0000       0.044179         1.2022 
 110   0.0000       0.054804         1.4913 
 111   0.0000       0.061461         1.6724 
 112   0.0000       0.077388         2.1058 
 113   0.0000       0.084237         2.2922 
 114   0.0000       0.108731         2.9587 
 115   0.0000       0.113103         3.0777 
 116   0.0000       0.118080         3.2131 
 117   0.0000       0.127892         3.4801 
 118   0.0000       0.131767         3.5856 
 119   0.0000       0.137719         3.7475 
 120   0.0000       0.140093         3.8121 
 121   0.0000       0.149282         4.0622 
 122   0.0000       0.155347         4.2272 
 123   0.0000       0.161425         4.3926 
 124   0.0000       0.165251         4.4967 
 125   0.0000       0.168879         4.5954 
 126   0.0000       0.173928         4.7328 
 127   0.0000       0.176082         4.7914 
 128   0.0000       0.183295         4.9877 
 129   0.0000       0.187128         5.0920 
 130   0.0000       0.191488         5.2106 
 131   0.0000       0.193859         5.2752 
 132   0.0000       0.199303         5.4233 
 133   0.0000       0.203448         5.5361 
 134   0.0000       0.206615         5.6223 
 135   0.0000       0.210289         5.7223 
 136   0.0000       0.211393         5.7523 
 137   0.0000       0.216204         5.8832 
 138   0.0000       0.221175         6.0185 
 139   0.0000       0.229646         6.2490 
 140   0.0000       0.232549         6.3280 
 141   0.0000       0.233691         6.3591 
 142   0.0000       0.239020         6.5041 
 143   0.0000       0.244494         6.6530 
 144   0.0000       0.248818         6.7707 
 145   0.0000       0.252037         6.8583 
 146   0.0000       0.257089         6.9957 
 147   0.0000       0.261029         7.1030 
 148   0.0000       0.263051         7.1580 
 149   0.0000       0.267544         7.2802 
 150   0.0000       0.271941         7.3999 
 151   0.0000       0.273544         7.4435 
 152   0.0000       0.276524         7.5246 
 153   0.0000       0.281333         7.6554 
 154   0.0000       0.286986         7.8093 
 155   0.0000       0.290786         7.9127 
 156   0.0000       0.291372         7.9286 
 157   0.0000       0.297019         8.0823 
 158   0.0000       0.300086         8.1658 
 159   0.0000       0.304071         8.2742 
 160   0.0000       0.307518         8.3680 
 161   0.0000       0.311161         8.4671 
 162   0.0000       0.315848         8.5947 
 163   0.0000       0.318943         8.6789 
 164   0.0000       0.323570         8.8048 
 165   0.0000       0.327350         8.9077 
 166   0.0000       0.334262         9.0957 
 167   0.0000       0.339425         9.2362 
 168   0.0000       0.347595         9.4585 
 169   0.0000       0.350211         9.5297 
 170   0.0000       0.352210         9.5841 
 171   0.0000       0.355099         9.6627 
 172   0.0000       0.357508         9.7283 
 173   0.0000       0.362635         9.8678 
 174   0.0000       0.367784        10.0079 
 175   0.0000       0.369324        10.0498 
 176   0.0000       0.373376        10.1601 
 177   0.0000       0.375914        10.2291 
 178   0.0000       0.379680        10.3316 
 179   0.0000       0.383460        10.4345 
 180   0.0000       0.392333        10.6759 
 181   0.0000       0.395987        10.7754 
 182   0.0000       0.397992        10.8299 
 183   0.0000       0.407403        11.0860 
 184   0.0000       0.407698        11.0940 
 185   0.0000       0.414291        11.2734 
 186   0.0000       0.421486        11.4692 
 187   0.0000       0.424885        11.5617 
 188   0.0000       0.427181        11.6242 
 189   0.0000       0.432223        11.7614 
 190   0.0000       0.438156        11.9228 
 191   0.0000       0.441524        12.0145 
 192   0.0000       0.446249        12.1430 
 193   0.0000       0.453540        12.3414 
 194   0.0000       0.454718        12.3735 
 195   0.0000       0.459910        12.5148 
 196   0.0000       0.466932        12.7059 
 197   0.0000       0.469964        12.7884 
 198   0.0000       0.474095        12.9008 
 199   0.0000       0.478379        13.0173 
 200   0.0000       0.484611        13.1869 
 201   0.0000       0.487232        13.2583 
 202   0.0000       0.488254        13.2861 
 203   0.0000       0.490331        13.3426 
 204   0.0000       0.497955        13.5500 
 205   0.0000       0.499669        13.5967 
 206   0.0000       0.503250        13.6941 
 207   0.0000       0.510736        13.8978 
 208   0.0000       0.513196        13.9648 
 209   0.0000       0.516395        14.0518 
 210   0.0000       0.517225        14.0744 
 211   0.0000       0.522710        14.2237 
 212   0.0000       0.528128        14.3711 
 213   0.0000       0.528838        14.3904 
 214   0.0000       0.534412        14.5421 
 215   0.0000       0.536711        14.6047 
 216   0.0000       0.541786        14.7427 
 217   0.0000       0.544002        14.8030 
 218   0.0000       0.547489        14.8979 
 219   0.0000       0.550767        14.9871 
 220   0.0000       0.553449        15.0601 
 221   0.0000       0.555472        15.1152 
 222   0.0000       0.559606        15.2277 
 223   0.0000       0.563525        15.3343 
 224   0.0000       0.565553        15.3895 
 225   0.0000       0.569616        15.5000 
 226   0.0000       0.576577        15.6895 
 227   0.0000       0.578466        15.7409 
 228   0.0000       0.581172        15.8145 
 229   0.0000       0.584664        15.9095 
 230   0.0000       0.589763        16.0483 
 231   0.0000       0.591036        16.0829 
 232   0.0000       0.594750        16.1840 
 233   0.0000       0.599084        16.3019 
 234   0.0000       0.601805        16.3759 
 235   0.0000       0.607459        16.5298 
 236   0.0000       0.608534        16.5591 
 237   0.0000       0.615004        16.7351 
 238   0.0000       0.621423        16.9098 
 239   0.0000       0.625324        17.0159 
 240   0.0000       0.627310        17.0700 
 241   0.0000       0.632141        17.2014 
 242   0.0000       0.634646        17.2696 
 243   0.0000       0.639974        17.4146 
 244   0.0000       0.645446        17.5635 
 245   0.0000       0.652501        17.7554 
 246   0.0000       0.656403        17.8616 
 247   0.0000       0.661409        17.9978 
 248   0.0000       0.663295        18.0492 
 249   0.0000       0.669263        18.2116 
 250   0.0000       0.676847        18.4179 
 251   0.0000       0.678597        18.4656 
 252   0.0000       0.680218        18.5097 
 253   0.0000       0.687071        18.6961 
 254   0.0000       0.690992        18.8028 
 255   0.0000       0.697784        18.9877 
 256   0.0000       0.700290        19.0559 
 257   0.0000       0.704483        19.1700 
 258   0.0000       0.709437        19.3048 
 259   0.0000       0.711732        19.3672 
 260   0.0000       0.719051        19.5664 
 261   0.0000       0.722746        19.6669 
 262   0.0000       0.723937        19.6993 
 263   0.0000       0.734466        19.9858 
 264   0.0000       0.735498        20.0139 
 265   0.0000       0.736717        20.0471 
 266   0.0000       0.744071        20.2472 
 267   0.0000       0.752099        20.4657 
 268   0.0000       0.756825        20.5943 
 269   0.0000       0.769759        20.9462 
 270   0.0000       0.773950        21.0603 
 271   0.0000       0.776021        21.1166 
 272   0.0000       0.781643        21.2696 
 273   0.0000       0.786998        21.4153 
 274   0.0000       0.788914        21.4674 
 275   0.0000       0.794410        21.6170 
 276   0.0000       0.803327        21.8596 
 277   0.0000       0.812336        22.1048 
 278   0.0000       0.814792        22.1716 
 279   0.0000       0.820252        22.3202 
 280   0.0000       0.829348        22.5677 
 281   0.0000       0.835160        22.7259 
 282   0.0000       0.836647        22.7663 
 283   0.0000       0.845901        23.0181 
 284   0.0000       0.850445        23.1418 
 285   0.0000       0.853683        23.2299 
 286   0.0000       0.857810        23.3422 
 287   0.0000       0.867245        23.5989 
 288   0.0000       0.871476        23.7141 
 289   0.0000       0.876799        23.8589 
 290   0.0000       0.882901        24.0250 
 291   0.0000       0.885315        24.0906 
 292   0.0000       0.895807        24.3761 
 293   0.0000       0.900302        24.4985 
 294   0.0000       0.908730        24.7278 
 295   0.0000       0.914122        24.8745 
 296   0.0000       0.916874        24.9494 
 297   0.0000       0.922039        25.0900 
 298   0.0000       0.926463        25.2103 
 299   0.0000       0.929502        25.2930 
 300   0.0000       0.932484        25.3742 
 301   0.0000       0.942080        25.6353 
 302   0.0000       0.947749        25.7896 
 303   0.0000       0.950272        25.8582 
 304   0.0000       0.957330        26.0503 
 305   0.0000       0.959455        26.1081 
 306   0.0000       0.963059        26.2062 
 307   0.0000       0.965922        26.2841 
 308   0.0000       0.975024        26.5317 
 309   0.0000       0.982503        26.7353 
 310   0.0000       0.989180        26.9170 
 311   0.0000       0.991720        26.9861 
 312   0.0000       0.999781        27.2054 
 313   0.0000       1.003538        27.3076 
 314   0.0000       1.011408        27.5218 
 315   0.0000       1.015034        27.6205 
 316   0.0000       1.019115        27.7315 
 317   0.0000       1.030805        28.0496 
 318   0.0000       1.031641        28.0724 
 319   0.0000       1.041750        28.3475 
 320   0.0000       1.049772        28.5657 
 321   0.0000       1.054346        28.6902 
 322   0.0000       1.057745        28.7827 
 323   0.0000       1.070815        29.1384 
 324   0.0000       1.079819        29.3834 
 325   0.0000       1.085698        29.5434 
 326   0.0000       1.090672        29.6787 
 327   0.0000       1.095506        29.8102 
 328   0.0000       1.103922        30.0392 
 329   0.0000       1.106696        30.1147 
 330   0.0000       1.113762        30.3070 
 331   0.0000       1.117970        30.4215 
 332   0.0000       1.122172        30.5359 
 333   0.0000       1.133133        30.8341 
 334   0.0000       1.140833        31.0436 
 335   0.0000       1.147970        31.2378 
 336   0.0000       1.151619        31.3371 
 337   0.0000       1.155212        31.4349 
 338   0.0000       1.160728        31.5850 
 339   0.0000       1.165989        31.7282 
 340   0.0000       1.174664        31.9642 
 341   0.0000       1.179013        32.0826 
 342   0.0000       1.187458        32.3124 
 343   0.0000       1.195203        32.5231 
 344   0.0000       1.204107        32.7654 
 345   0.0000       1.207221        32.8502 
 346   0.0000       1.212127        32.9837 
 347   0.0000       1.217393        33.1269 
 348   0.0000       1.219701        33.1897 
 349   0.0000       1.228639        33.4330 
 350   0.0000       1.236326        33.6421 
 351   0.0000       1.239983        33.7417 
 352   0.0000       1.247053        33.9340 
 353   0.0000       1.250211        34.0200 
 354   0.0000       1.256180        34.1824 
 355   0.0000       1.261446        34.3257 
 356   0.0000       1.274925        34.6925 
 357   0.0000       1.278921        34.8012 
 358   0.0000       1.286976        35.0204 
 359   0.0000       1.290833        35.1254 
 360   0.0000       1.295386        35.2492 
 361   0.0000       1.301577        35.4177 
 362   0.0000       1.309360        35.6295 
 363   0.0000       1.312711        35.7207 
 364   0.0000       1.320190        35.9242 
 365   0.0000       1.331935        36.2438 
 366   0.0000       1.334669        36.3182 
 367   0.0000       1.341145        36.4944 
 368   0.0000       1.347909        36.6785 
 369   0.0000       1.351691        36.7814 
 370   0.0000       1.357822        36.9482 
 371   0.0000       1.360020        37.0080 
 372   0.0000       1.370910        37.3044 
 373   0.0000       1.377206        37.4757 
 374   0.0000       1.381268        37.5862 
 375   0.0000       1.389748        37.8170 
 376   0.0000       1.393754        37.9260 
 377   0.0000       1.405617        38.2488 
 378   0.0000       1.415921        38.5292 
 379   0.0000       1.417576        38.5742 
 380   0.0000       1.426447        38.8156 
 381   0.0000       1.429918        38.9100 
 382   0.0000       1.434256        39.0281 
 383   0.0000       1.444844        39.3162 
 384   0.0000       1.448467        39.4148 
 385   0.0000       1.456147        39.6238 
 386   0.0000       1.460241        39.7352 
 387   0.0000       1.462481        39.7961 
 388   0.0000       1.470110        40.0037 
 389   0.0000       1.476077        40.1661 
 390   0.0000       1.487519        40.4774 
 391   0.0000       1.504021        40.9265 
 392   0.0000       1.514268        41.2053 
 393   0.0000       1.521829        41.4111 
 394   0.0000       1.534318        41.7509 
 395   0.0000       1.545576        42.0573 
 396   0.0000       1.546157        42.0731 
 397   0.0000       1.561339        42.4862 
 398   0.0000       1.563567        42.5468 
 399   0.0000       1.567674        42.6586 
 400   0.0000       1.585440        43.1420 
 401   0.0000       1.594030        43.3758 
 402   0.0000       1.597406        43.4676 
 403   0.0000       1.606365        43.7114 
 404   0.0000       1.607195        43.7340 
 405   0.0000       1.612322        43.8735 
 406   0.0000       1.617563        44.0161 
 407   0.0000       1.619941        44.0808 
 408   0.0000       1.622878        44.1607 
 409   0.0000       1.629161        44.3317 
 410   0.0000       1.632946        44.4347 
 411   0.0000       1.639913        44.6243 
 412   0.0000       1.645370        44.7728 
 413   0.0000       1.649250        44.8784 
[...]
      f+2     :     0.013780
      f-2     :     0.008556
      f+3     :     0.010225
      f-3     :     0.009769
 17 N s       :     3.298616  s :     3.298616
      pz      :     1.115719  p :     3.501195
      px      :     1.012220
      py      :     1.373256
      dz2     :     0.017967  d :     0.108267
      dxz     :     0.007316
      dyz     :     0.033346
      dx2y2   :     0.025946
      dxy     :     0.023691
      f0      :     0.001441  f :     0.016548
      f+1     :     0.000021
      f-1     :     0.003874
      f+2     :     0.003870
      f-2     :     0.002117
      f+3     :     0.002600
      f-3     :     0.002625
 18 C s       :     2.731888  s :     2.731888
      pz      :     0.916961  p :     2.618433
      px      :     0.911107
      py      :     0.790365
      dz2     :     0.242939  d :     0.967036
      dxz     :     0.263913
      dyz     :     0.189671
      dx2y2   :     0.151832
      dxy     :     0.118681
      f0      :     0.023378  f :     0.154793
      f+1     :     0.030616
      f-1     :     0.023397
      f+2     :     0.028574
      f-2     :     0.022435
      f+3     :     0.012435
      f-3     :     0.013958
 19 O s       :     3.234705  s :     3.234705
      pz      :     1.534917  p :     4.345757
      px      :     1.296245
      py      :     1.514595
      dz2     :     0.016670  d :     0.107685
      dxz     :     0.030588
      dyz     :     0.012507
      dx2y2   :     0.024548
      dxy     :     0.023372
      f0      :     0.000820  f :     0.006695
      f+1     :     0.000888
      f-1     :     0.000713
      f+2     :     0.001270
      f-2     :     0.001130
      f+3     :     0.000742
      f-3     :     0.001133
 20 C s       :     2.801929  s :     2.801929
      pz      :     1.070596  p :     2.881264
      px      :     0.749129
      py      :     1.061539
      dz2     :     0.086165  d :     0.478008
      dxz     :     0.095030
      dyz     :     0.061303
      dx2y2   :     0.132910
      dxy     :     0.102600
      f0      :     0.007286  f :     0.063361
      f+1     :     0.008993
      f-1     :     0.004641
      f+2     :     0.010363
      f-2     :     0.003895
      f+3     :     0.013088
      f-3     :     0.015094
 21 C s       :     2.729780  s :     2.729780
      pz      :     1.011967  p :     2.988106
      px      :     0.986656
      py      :     0.989483
      dz2     :     0.136445  d :     0.522634
      dxz     :     0.067462
      dyz     :     0.137613
      dx2y2   :     0.121813
      dxy     :     0.059301
      f0      :     0.006035  f :     0.052887
      f+1     :     0.007973
      f-1     :     0.014384
      f+2     :     0.005766
      f-2     :     0.007045
      f+3     :     0.006491
      f-3     :     0.005193
 22 C s       :     2.820191  s :     2.820191
      pz      :     1.029618  p :     3.179237
      px      :     1.076179
      py      :     1.073441
      dz2     :     0.058612  d :     0.260546
      dxz     :     0.057549
      dyz     :     0.080411
      dx2y2   :     0.043895
      dxy     :     0.020079
      f0      :     0.005338  f :     0.024670
      f+1     :     0.006051
      f-1     :     0.004694
      f+2     :     0.002136
      f-2     :     0.003344
      f+3     :     0.002608
      f-3     :     0.000500
 23 C s       :     2.767597  s :     2.767597
      pz      :     1.017082  p :     3.043284
      px      :     1.029490
      py      :     0.996713
      dz2     :     0.110998  d :     0.397693
      dxz     :     0.020090
      dyz     :     0.075856
      dx2y2   :     0.121892
      dxy     :     0.068857
      f0      :     0.003753  f :     0.038409
      f+1     :     0.003426
      f-1     :     0.006671
      f+2     :     0.005045
      f-2     :     0.006201
      f+3     :     0.006534
      f-3     :     0.006778
 24 C s       :     2.770542  s :     2.770542
      pz      :     1.027636  p :     3.055056
      px      :     1.024077
      py      :     1.003343
      dz2     :     0.109866  d :     0.402916
      dxz     :     0.028025
      dyz     :     0.080432
      dx2y2   :     0.116719
      dxy     :     0.067875
      f0      :     0.003362  f :     0.039218
      f+1     :     0.003995
      f-1     :     0.007843
      f+2     :     0.004679
      f-2     :     0.006595
      f+3     :     0.006473
      f-3     :     0.006271
 25 C s       :     2.773514  s :     2.773514
      pz      :     1.023727  p :     3.055276
      px      :     1.024960
      py      :     1.006589
      dz2     :     0.108927  d :     0.405341
      dxz     :     0.031095
      dyz     :     0.082257
      dx2y2   :     0.117158
      dxy     :     0.065905
      f0      :     0.003320  f :     0.039176
      f+1     :     0.004078
      f-1     :     0.007968
      f+2     :     0.004741
      f-2     :     0.006461
      f+3     :     0.006698
      f-3     :     0.005911
 26 C s       :     2.777056  s :     2.777056
      pz      :     1.029283  p :     3.074614
      px      :     1.027662
      py      :     1.017670
      dz2     :     0.106862  d :     0.408061
      dxz     :     0.032649
      dyz     :     0.083476
      dx2y2   :     0.118102
      dxy     :     0.066972
      f0      :     0.003280  f :     0.039335
      f+1     :     0.004173
      f-1     :     0.007925
      f+2     :     0.004753
      f-2     :     0.006578
      f+3     :     0.006698
      f-3     :     0.005929
 27 C s       :     2.829571  s :     2.829571
      pz      :     1.069783  p :     3.196450
      px      :     1.073149
      py      :     1.053518
      dz2     :     0.078362  d :     0.267182
      dxz     :     0.026863
      dyz     :     0.046024
      dx2y2   :     0.074902
      dxy     :     0.041031
      f0      :     0.002573  f :     0.024922
      f+1     :     0.003494
      f-1     :     0.004254
      f+2     :     0.003190
      f-2     :     0.004401
      f+3     :     0.004706
      f-3     :     0.002303
 28 O s       :     3.389085  s :     3.389085
      pz      :     1.446916  p :     4.402596
      px      :     1.576496
      py      :     1.379185
      dz2     :     0.020426  d :     0.067962
      dxz     :     0.016379
      dyz     :     0.020096
      dx2y2   :     0.005468
      dxy     :     0.005593
      f0      :     0.001258  f :     0.006407
      f+1     :     0.001150
      f-1     :     0.001680
      f+2     :     0.000969
      f-2     :     0.001020
      f+3     :     0.000159
      f-3     :     0.000170
 29 H s       :     0.796529  s :     0.796529
      pz      :     0.020716  p :     0.061826
      px      :     0.010032
      py      :     0.031078
 30 H s       :     0.798465  s :     0.798465
      pz      :     0.035014  p :     0.059308
      px      :     0.010923
      py      :     0.013372
 31 H s       :     0.776285  s :     0.776285
      pz      :     0.012692  p :     0.056326
      px      :     0.031302
      py      :     0.012331
 32 H s       :     0.816980  s :     0.816980
      pz      :     0.013539  p :     0.062112
      px      :     0.034727
      py      :     0.013846
 33 H s       :     0.812427  s :     0.812427
      pz      :     0.016268  p :     0.061379
      px      :     0.015295
      py      :     0.029817
 34 H s       :     0.813594  s :     0.813594
      pz      :     0.016866  p :     0.061946
      px      :     0.018760
      py      :     0.026320
 35 H s       :     0.798548  s :     0.798548
      pz      :     0.031786  p :     0.058270
      px      :     0.014151
      py      :     0.012332
 36 H s       :     0.803260  s :     0.803260
      pz      :     0.013105  p :     0.059177
      px      :     0.033350
      py      :     0.012722
 37 H s       :     0.802993  s :     0.802993
      pz      :     0.031036  p :     0.058908
      px      :     0.014807
      py      :     0.013065
 38 H s       :     0.803591  s :     0.803591
      pz      :     0.013052  p :     0.058077
      px      :     0.032630
      py      :     0.012396
 39 H s       :     0.805769  s :     0.805769
      pz      :     0.030290  p :     0.058038
      px      :     0.015073
      py      :     0.012675
 40 H s       :     0.805256  s :     0.805256
      pz      :     0.012949  p :     0.058043
      px      :     0.032649
      py      :     0.012445
 41 H s       :     0.807642  s :     0.807642
      pz      :     0.030035  p :     0.058123
      px      :     0.015323
      py      :     0.012764
 42 H s       :     0.807890  s :     0.807890
      pz      :     0.013002  p :     0.058128
      px      :     0.032601
      py      :     0.012525
 43 H s       :     0.820138  s :     0.820138
      pz      :     0.013279  p :     0.060726
      px      :     0.034425
      py      :     0.013022
 44 H s       :     0.820162  s :     0.820162
      pz      :     0.016590  p :     0.060988
      px      :     0.016303
      py      :     0.028094
 45 H s       :     0.820290  s :     0.820290
      pz      :     0.031633  p :     0.060712
      px      :     0.015924
      py      :     0.013154


                      *****************************
                      * MAYER POPULATION ANALYSIS *
                      *****************************

  NA   - Mulliken gross atomic population
  ZA   - Total nuclear charge
  QA   - Mulliken gross atomic charge
  VA   - Mayer's total valence
  BVA  - Mayer's bonded valence
  FA   - Mayer's free valence

  ATOM       NA         ZA         QA         VA         BVA        FA
  0 F      9.1659     9.0000    -0.1659     1.1431     1.1431    -0.0000
  1 C      5.7543     6.0000     0.2457     3.8996     3.8996    -0.0000
  2 C      6.1452     6.0000    -0.1452     4.0443     4.0443    -0.0000
  3 C      5.7709     6.0000     0.2291     3.9708     3.9708    -0.0000
  4 F      9.1670     9.0000    -0.1670     1.1449     1.1449    -0.0000
  5 C      5.6872     6.0000     0.3128     3.7693     3.7693    -0.0000
  6 F      9.1781     9.0000    -0.1781     1.1314     1.1314    -0.0000
  7 C      5.5832     6.0000     0.4168     3.7142     3.7142    -0.0000
  8 C      6.2298     6.0000    -0.2298     4.0897     4.0897    -0.0000
  9 N      7.0318     7.0000    -0.0318     3.1009     3.1009    -0.0000
 10 N      7.1149     7.0000    -0.1149     3.4562     3.4562    -0.0000
 11 C      6.1171     6.0000    -0.1171     2.5571     2.5571    -0.0000
 12 C      5.7444     6.0000     0.2556     3.8886     3.8886    -0.0000
 13 F      9.1626     9.0000    -0.1626     1.1516     1.1516    -0.0000
 14 C      6.1585     6.0000    -0.1585     4.0381     4.0381    -0.0000
 15 C      5.6841     6.0000     0.3159     3.6663     3.6663    -0.0000
 16 C      6.2190     6.0000    -0.2190     4.0346     4.0346    -0.0000
 17 N      7.0441     7.0000    -0.0441     3.0984     3.0984    -0.0000
 18 C      5.7388     6.0000     0.2612     4.3223     4.3223    -0.0000
 19 O      8.2363     8.0000    -0.2363     2.1636     2.1636    -0.0000
 20 C      6.1112     6.0000    -0.1112     3.8344     3.8344    -0.0000
 21 C      5.9885     6.0000     0.0115     3.8211     3.8211    -0.0000
 22 C      6.4277     6.0000    -0.4277     3.9167     3.9167    -0.0000
 23 C      6.2830     6.0000    -0.2830     3.8764     3.8764    -0.0000
 24 C      6.2224     6.0000    -0.2224     3.9082     3.9082    -0.0000
 25 C      6.2254     6.0000    -0.2254     3.9145     3.9145    -0.0000
 26 C      6.1736     6.0000    -0.1736     3.8912     3.8912    -0.0000
 27 C      6.3714     6.0000    -0.3714     3.9174     3.9174    -0.0000
 28 O      8.3419     8.0000    -0.3419     2.1622     2.1622    -0.0000
 29 H      0.8313     1.0000     0.1687     0.9736     0.9736    -0.0000
 30 H      0.8401     1.0000     0.1599     0.9669     0.9669    -0.0000
 31 H      0.8957     1.0000     0.1043     0.9690     0.9690    -0.0000
 32 H      0.8764     1.0000     0.1236     0.9837     0.9837    -0.0000
 33 H      0.8592     1.0000     0.1408     0.9753     0.9753    -0.0000
 34 H      0.8549     1.0000     0.1451     0.9622     0.9622    -0.0000
 35 H      0.8820     1.0000     0.1180     0.9746     0.9746    -0.0000
 36 H      0.8809     1.0000     0.1191     0.9865     0.9865    -0.0000
 37 H      0.8853     1.0000     0.1147     0.9691     0.9691    -0.0000
 38 H      0.8898     1.0000     0.1102     0.9697     0.9697    -0.0000
 39 H      0.8964     1.0000     0.1036     0.9703     0.9703    -0.0000
 40 H      0.8961     1.0000     0.1039     0.9692     0.9692    -0.0000
 41 H      0.8987     1.0000     0.1013     0.9683     0.9683    -0.0000
 42 H      0.8985     1.0000     0.1015     0.9670     0.9670    -0.0000
 43 H      0.8805     1.0000     0.1195     0.9697     0.9697    -0.0000
 44 H      0.8735     1.0000     0.1265     0.9697     0.9697    -0.0000
 45 H      0.8826     1.0000     0.1174     0.9702     0.9702    -0.0000

  Mayer bond orders larger than 0.100000
B(  0-F ,  1-C ) :   1.0510 B(  1-C ,  2-C ) :   1.0379 B(  1-C , 12-C ) :   1.7384 
B(  2-C ,  3-C ) :   1.0867 B(  2-C ,  7-C ) :   1.5917 B(  3-C ,  4-F ) :   1.0153 
B(  3-C ,  5-C ) :   1.7461 B(  5-C ,  6-F ) :   0.9453 B(  5-C , 14-C ) :   1.0384 
B(  7-C ,  8-C ) :   0.9538 B(  7-C , 10-N ) :   1.0021 B(  8-C ,  9-N ) :   2.9961 
B( 10-N , 11-C ) :   2.3895 B( 12-C , 13-F ) :   1.0189 B( 12-C , 14-C ) :   1.0758 
B( 14-C , 15-C ) :   1.6520 B( 15-C , 16-C ) :   0.9499 B( 15-C , 18-C ) :   0.8859 
B( 16-C , 17-N ) :   2.9787 B( 18-C , 19-O ) :   1.2615 B( 18-C , 28-O ) :   2.0073 
B( 19-O , 20-C ) :   0.8173 B( 20-C , 21-C ) :   0.9930 B( 20-C , 29-H ) :   0.9775 
B( 20-C , 30-H ) :   0.9643 B( 21-C , 22-C ) :   0.9529 B( 21-C , 23-C ) :   0.9593 
B( 21-C , 31-H ) :   0.9607 B( 22-C , 32-H ) :   0.9614 B( 22-C , 33-H ) :   0.9785 
B( 22-C , 34-H ) :   0.9776 B( 23-C , 24-C ) :   0.9698 B( 23-C , 35-H ) :   0.9741 
B( 23-C , 36-H ) :   0.9701 B( 24-C , 25-C ) :   0.9967 B( 24-C , 37-H ) :   0.9722 
B( 24-C , 38-H ) :   0.9668 B( 25-C , 26-C ) :   0.9904 B( 25-C , 39-H ) :   0.9680 
B( 25-C , 40-H ) :   0.9685 B( 26-C , 27-C ) :   0.9806 B( 26-C , 41-H ) :   0.9711 
B( 26-C , 42-H ) :   0.9735 B( 27-C , 43-H ) :   0.9788 B( 27-C , 44-H ) :   0.9823 
B( 27-C , 45-H ) :   0.9774 

-------
TIMINGS
-------

Total SCF time: 0 days 0 hours 18 min 25 sec 

Total time                  ....    1105.877 sec
Sum of individual times     ....    1098.488 sec  ( 99.3%)

Fock matrix formation       ....    1078.454 sec  ( 97.5%)
  XC integration            ....       7.048 sec  (  0.7% of F)
    Basis function eval.    ....       1.219 sec  ( 17.3% of XC)
    Density eval.           ....       1.811 sec  ( 25.7% of XC)
    XC-Functional eval.     ....       0.343 sec  (  4.9% of XC)
    XC-Potential eval.      ....       2.281 sec  ( 32.4% of XC)
Diagonalization             ....       2.346 sec  (  0.2%)
Density matrix formation    ....       0.613 sec  (  0.1%)
Population analysis         ....       0.801 sec  (  0.1%)
Initial guess               ....       1.687 sec  (  0.2%)
Orbital Transformation      ....       0.000 sec  (  0.0%)
Orbital Orthonormalization  ....       1.406 sec  (  0.1%)
DIIS solution               ....       0.253 sec  (  0.0%)
SOSCF solution              ....       9.573 sec  (  0.9%)
Grid generation             ....       4.760 sec  (  0.4%)


-------------------------------------------------------------------------------
                          DFT DISPERSION CORRECTION                            
                                                                               
                              DFTD3 V3.1  Rev 1                                
                              USING zero damping                               
-------------------------------------------------------------------------------
The omegaB97X-D3 functional is recognized. Fit by Chai et al.
Active option DFTDOPT                   ...         3   

molecular C6(AA) [au] = 24582.102495 


            DFT-D V3
 parameters
 s6 scaling factor         :     1.0000 
 rs6 scaling factor        :     1.2810 
 s8 scaling factor         :     1.0000 
 rs8 scaling factor        :     1.0940 
 Damping factor alpha6     :    14.0000 
 Damping factor alpha8     :    16.0000 
 ad hoc parameters k1-k3   :    16.0000     1.3333    -4.0000 

 Edisp/kcal,au: -14.255411484692  -0.022717441813 
 E6   /kcal   :  -6.327766408 
 E8   /kcal   :  -7.927645077 
 % E8         :  55.611478387 

-------------------------   ----------------
Dispersion correction           -0.022717442
-------------------------   ----------------


-------------------------   --------------------
FINAL SINGLE POINT ENERGY     -1486.453521345950
-------------------------   --------------------

                                *** OPTIMIZATION RUN DONE ***

                            ***************************************
                            *     ORCA property calculations      *
                            ***************************************

                                    ---------------------
                                    Active property flags
                                    ---------------------
   (+) Dipole Moment


------------------------------------------------------------------------------
                       ORCA ELECTRIC PROPERTIES CALCULATION
------------------------------------------------------------------------------

Dipole Moment Calculation                       ... on
Quadrupole Moment Calculation                   ... off
Polarizability Calculation                      ... off
GBWName                                         ... F4OCTCNQ.gbw
Electron density file                           ... F4OCTCNQ.scfp
The origin for moment calculation is the CENTER OF MASS  = ( 9.301021, -0.838677  0.202689)

-------------
DIPOLE MOMENT
-------------
                                X             Y             Z
Electronic contribution:    -71.34436      32.89031       2.85563
Nuclear contribution   :     73.37271     -33.35813      -3.16565
                        -----------------------------------------
Total Dipole Moment    :      2.02835      -0.46782      -0.31002
                        -----------------------------------------
Magnitude (a.u.)       :      2.10456
Magnitude (Debye)      :      5.34937



--------------------
Rotational spectrum 
--------------------
 
Rotational constants in cm-1:     0.005941     0.003610     0.002456 
Rotational constants in MHz :   178.118064   108.238469    73.618343 

 Dipole components along the rotational axes: 
x,y,z [a.u.] :     2.084589    -0.021442    -0.288471 
x,y,z [Debye]:     5.298603    -0.054502    -0.733235 

 
--------------------------------------------------------------------------
[[5342,1],1]: A high-performance Open MPI point-to-point messaging module
was unable to find any relevant network interfaces:

Module: OpenFabrics (openib)
  Host: compute-0-9

Another transport will be used instead, although this may result in
lower performance.

NOTE: You can disable this warning by setting the MCA parameter
btl_base_warn_component_unused to 0.
--------------------------------------------------------------------------
[compute-0-9.local:45553] 7 more processes have sent help message help-mpi-btl-base.txt / btl:no-nics
[compute-0-9.local:45553] Set MCA parameter "orte_base_help_aggregate" to 0 to see all help / error messages

Timings for individual modules:

Sum of individual times         ...   146242.023 sec (=2437.367 min)
GTO integral calculation        ...      127.602 sec (=   2.127 min)   0.1 %
SCF iterations                  ...    92257.129 sec (=1537.619 min)  63.1 %
SCF Gradient evaluation         ...    53835.855 sec (= 897.264 min)  36.8 %
Geometry relaxation             ...       21.437 sec (=   0.357 min)   0.0 %
                             ****ORCA TERMINATED NORMALLY****
TOTAL RUN TIME: 1 days 16 hours 37 minutes 45 seconds 827 msec
