Warning: no access to tty (Bad file descriptor).
Thus no job control in this shell.

                                 *****************
                                 * O   R   C   A *
                                 *****************

           --- An Ab Initio, DFT and Semiempirical electronic structure package ---

                  #######################################################
                  #                        -***-                        #
                  #          Department of theory and spectroscopy      #
                  #               Directorship: Frank Neese             #
                  #        Max Planck Institute fuer Kohlenforschung    #
                  #                Kaiser Wilhelm Platz 1               #
                  #                 D-45470 Muelheim/Ruhr               #
                  #                      Germany                        #
                  #                                                     #
                  #                  All rights reserved                #
                  #                        -***-                        #
                  #######################################################


                         Program Version 4.2.1 -  RELEASE  -


 With contributions from (in alphabetic order):
   Daniel Aravena         : Magnetic Suceptibility
   Michael Atanasov       : Ab Initio Ligand Field Theory (pilot matlab implementation)
   Alexander A. Auer      : GIAO ZORA, VPT2
   Ute Becker             : Parallelization
   Giovanni Bistoni       : ED, misc. LED, open-shell LED, HFLD
   Martin Brehm           : Molecular dynamics
   Dmytro Bykov           : SCF Hessian
   Vijay G. Chilkuri      : MRCI spin determinant printing, contributions to CSF-ICE
   Dipayan Datta          : RHF DLPNO-CCSD density
   Achintya Kumar Dutta   : EOM-CC, STEOM-CC
   Dmitry Ganyushin       : Spin-Orbit,Spin-Spin,Magnetic field MRCI
   Miquel Garcia          : C-PCM Hessian, Gaussian charge scheme
   Yang Guo               : DLPNO-NEVPT2, CIM, IAO-localization
   Andreas Hansen         : Spin unrestricted coupled pair/coupled cluster methods
   Benjamin Helmich-Paris : CASSCF linear response (MC-RPA)
   Lee Huntington         : MR-EOM, pCC
   Robert Izsak           : Overlap fitted RIJCOSX, COSX-SCS-MP3, EOM
   Christian Kollmar      : KDIIS, OOCD, Brueckner-CCSD(T), CCSD density
   Simone Kossmann        : Meta GGA functionals, TD-DFT gradient, OOMP2, MP2 Hessian
   Martin Krupicka        : AUTO-CI
   Lucas Lang             : DCDCAS
   Dagmar Lenk            : GEPOL surface, SMD
   Dimitrios Liakos       : Extrapolation schemes; Compound Job, initial MDCI parallelization
   Dimitrios Manganas     : Further ROCIS development; embedding schemes
   Dimitrios Pantazis     : SARC Basis sets
   Taras Petrenko         : DFT Hessian,TD-DFT gradient, ASA, ECA, R-Raman, ABS, FL, XAS/XES, NRVS
   Peter Pinski           : DLPNO-MP2, DLPNO-MP2 Gradient
   Christoph Reimann      : Effective Core Potentials
   Marius Retegan         : Local ZFS, SOC
   Christoph Riplinger    : Optimizer, TS searches, QM/MM, DLPNO-CCSD(T), (RO)-DLPNO pert. Triples
   Tobias Risthaus        : Range-separated hybrids, TD-DFT gradient, RPA, STAB
   Michael Roemelt        : Original ROCIS implementation
   Masaaki Saitow         : Open-shell DLPNO-CCSD energy and density
   Barbara Sandhoefer     : DKH picture change effects
   Avijit Sen             : IP-ROCIS
   Kantharuban Sivalingam : CASSCF convergence, NEVPT2, FIC-MRCI
   Bernardo de Souza      : ESD, SOC TD-DFT
   Georgi Stoychev        : AutoAux, RI-MP2 NMR
   Willem Van den Heuvel  : Paramagnetic NMR
   Boris Wezisla          : Elementary symmetry handling
   Frank Wennmohs         : Technical directorship


 We gratefully acknowledge several colleagues who have allowed us to
 interface, adapt or use parts of their codes:
   Stefan Grimme, W. Hujo, H. Kruse,             : VdW corrections, initial TS optimization,
                  C. Bannwarth                     DFT functionals, gCP, sTDA/sTD-DF
   Ed Valeev, F. Pavosevic, A. Kumar             : LibInt (2-el integral package), F12 methods
   Garnet Chan, S. Sharma, J. Yang, R. Olivares  : DMRG
   Ulf Ekstrom                                   : XCFun DFT Library
   Mihaly Kallay                                 : mrcc  (arbitrary order and MRCC methods)
   Andreas Klamt, Michael Diedenhofen            : otool_cosmo (COSMO solvation model)
   Jiri Pittner, Ondrej Demel                    : Mk-CCSD
   Frank Weinhold                                : gennbo (NPA and NBO analysis)
   Christopher J. Cramer and Donald G. Truhlar   : smd solvation model
   Lars Goerigk                                  : TD-DFT with DH, B97 family of functionals
   V. Asgeirsson, H. Jonsson                     : NEB implementation
   FAccTs GmbH                                   : IRC, NEB, NEB-TS, Multilevel, MM, QM/MM, CI optimization
   S Lehtola, MJT Oliveira, MAL Marques          : LibXC Library


 Your calculation uses the libint2 library for the computation of 2-el integrals
 For citations please refer to: http://libint.valeyev.net

 Your ORCA version has been built with support for libXC version: 4.2.3
 For citations please refer to: https://tddft.org/programs/libxc/

 This ORCA versions uses:
   CBLAS   interface :  Fast vector & matrix operations
   LAPACKE interface :  Fast linear algebra routines
   SCALAPACK package :  Parallel linear algebra routines


Your calculation utilizes the atom-pairwise dispersion correction
with the zero-damping scheme (D30)
Cite in your paper:
S.Grimme, J.Antony, S.Ehrlich and H.Krieg, J.Chem.Phys., 132, (2010), 154104 
   

XCFun DFT library Copyright 2009-2010 Ulf Ekstrom and contributors.
See http://admol.org/xcfun for more information. This is free soft-
ware; see the source code for copying conditions. There is ABSOLUTELY
NO WARRANTY; not even for MERCHANTABILITY or FITNESS FOR A PARTICULAR
PURPOSE. For details see the documentation. Scientific users of this 
library should cite U. Ekstrom, L. Visscher, R. Bast, A. J. Thorvald-
sen and K. Ruud; J.Chem.Theor.Comp. 2010, DOI: 10.1021/ct100117s
XCFun Version 0.99 
----- Orbital basis set information -----
Your calculation utilizes the basis: def2-TZVP
   F. Weigend and R. Ahlrichs, Phys. Chem. Chem. Phys. 7, 3297 (2005).

----- AuxJ basis set information -----
Your calculation utilizes the auxiliary basis: def2/J
   F. Weigend, Phys. Chem. Chem. Phys. 8, 1057 (2006).

================================================================================
                                        WARNINGS
                       Please study these warnings very carefully!
================================================================================


WARNING: Geometry Optimization
  ===> : Switching off AutoStart
         For restart on a previous wavefunction, please use MOREAD

INFO   : the flag for use of LIBINT has been found!

================================================================================
                                       INPUT FILE
================================================================================
NAME = ZnC6F52.inp
|  1> # avogadro generated ORCA input file 
|  2> # Basic Mode
|  3> # 
|  4> ! wB97X-D3 OPT def2-TZVP def2/J CPCM
|  5> %cpcm
|  6>   epsilon 3
|  7> end
|  8> %pal
|  9>  nprocs 4
| 10> end
| 11> 
| 12> * xyz 0 1
| 13>    C        0.37510        4.98468        0.81812
| 14>    C        0.06008        3.63407        0.62128
| 15>    C       -0.63676        5.90867        1.09641
| 16>    C       -1.27259        3.20203        0.70248
| 17>    C       -1.96526        5.48292        1.17821
| 18>    C       -2.27886        4.13409        0.98152
| 19>   Zn       -1.97066        1.38958        0.47055
| 20>    C       -1.14090       -0.33693        0.07470
| 21>    C        0.21830       -0.61757       -0.13290
| 22>    C        0.63231       -1.92717       -0.40797
| 23>    C       -2.07374       -1.37805        0.00367
| 24>    C       -1.66127       -2.68604       -0.27094
| 25>    C       -0.30671       -2.96089       -0.47699
| 26>    F        1.66457        5.39811        0.73876
| 27>    F        1.05485        2.76461        0.35442
| 28>    F       -0.32961        7.21599        1.28668
| 29>    F       -2.94937        6.37642        1.44798
| 30>    F       -3.56705        3.72000        1.06061
| 31>    F       -3.38731       -1.11029        0.20369
| 32>    F       -2.57492       -3.68627       -0.33714
| 33>    F        0.09625       -4.22825       -0.74346
| 34>    F        1.94710       -2.19413       -0.60799
| 35>    F        1.14435        0.35992       -0.07208
| 36> *
| 37> 
| 38> 
| 39>                          ****END OF INPUT****
================================================================================

                       *****************************
                       * Geometry Optimization Run *
                       *****************************

Geometry optimization settings:
Update method            Update   .... BFGS
Choice of coordinates    CoordSys .... Z-matrix Internals
Initial Hessian          InHess   .... Almoef's Model

Convergence Tolerances:
Energy Change            TolE     ....  5.0000e-06 Eh
Max. Gradient            TolMAXG  ....  3.0000e-04 Eh/bohr
RMS Gradient             TolRMSG  ....  1.0000e-04 Eh/bohr
Max. Displacement        TolMAXD  ....  4.0000e-03 bohr
RMS Displacement         TolRMSD  ....  2.0000e-03 bohr
Strict Convergence                ....  False
------------------------------------------------------------------------------
                        ORCA OPTIMIZATION COORDINATE SETUP
------------------------------------------------------------------------------

The optimization will be done in new redundant internal coordinates
Making redundant internal coordinates   ...  (new redundants) done
Evaluating the initial hessian          ...  (Almloef) done
Evaluating the coordinates              ...  done
Calculating the B-matrix                .... done
Calculating the G-matrix                .... done
Diagonalizing the G-matrix              .... done
Small eigenvalue found = 1.320e-02
The first mode is                       ....   91
The number of degrees of freedom        ....   63

    -----------------------------------------------------------------
                    Redundant Internal Coordinates


    -----------------------------------------------------------------
         Definition                    Initial Value    Approx d2E/dq
    -----------------------------------------------------------------
      1. B(C   1,C   0)                  1.4008         0.600579   
      2. B(C   2,C   0)                  1.3982         0.606176   
      3. B(C   3,C   1)                  1.4033         0.594995   
      4. B(C   4,C   2)                  1.3975         0.607929   
      5. B(C   5,C   4)                  1.3987         0.605133   
      6. B(C   5,C   3)                  1.3997         0.602910   
      7. B(Zn  6,C   3)                  1.9560         0.790301   
      8. B(Zn  6,C   5)                  2.8086         0.034477   
      9. B(C   7,Zn  6)                  1.9560         0.790325   
     10. B(C   8,C   7)                  1.4033         0.594980   
     11. B(C   9,C   8)                  1.4008         0.600588   
     12. B(C  10,C   7)                  1.3997         0.602919   
     13. B(C  10,Zn  6)                  2.8086         0.034478   
     14. B(C  11,C  10)                  1.3987         0.605129   
     15. B(C  12,C   9)                  1.3982         0.606147   
     16. B(C  12,C  11)                  1.3974         0.607956   
     17. B(F  13,C   0)                  1.3564         0.588159   
     18. B(F  14,C   1)                  1.3479         0.607001   
     19. B(F  15,C   2)                  1.3563         0.588418   
     20. B(F  16,C   4)                  1.3563         0.588449   
     21. B(F  17,C   5)                  1.3554         0.590391   
     22. B(F  18,C  10)                  1.3554         0.590382   
     23. B(F  19,C  11)                  1.3563         0.588443   
     24. B(F  20,C  12)                  1.3563         0.588454   
     25. B(F  21,C   9)                  1.3564         0.588164   
     26. B(F  22,C   8)                  1.3479         0.606991   
     27. A(C   2,C   0,F  13)          119.8789         0.423567   
     28. A(C   1,C   0,C   2)          120.1581         0.429845   
     29. A(C   1,C   0,F  13)          119.9631         0.422865   
     30. A(C   3,C   1,F  14)          120.9135         0.424546   
     31. A(C   0,C   1,C   3)          120.1518         0.428412   
     32. A(C   0,C   1,F  14)          118.9347         0.425256   
     33. A(C   4,C   2,F  15)          120.0480         0.423819   
     34. A(C   0,C   2,C   4)          119.8866         0.430785   
     35. A(C   0,C   2,F  15)          120.0654         0.423600   
     36. A(C   5,C   3,Zn  6)          112.5871         0.507374   
     37. A(C   1,C   3,C   5)          119.2915         0.428710   
     38. A(C   1,C   3,Zn  6)          128.1214         0.506125   
     39. A(C   5,C   4,F  16)          120.0377         0.423474   
     40. A(C   2,C   4,C   5)          119.9148         0.430652   
     41. A(C   2,C   4,F  16)          120.0474         0.423823   
     42. A(C   4,C   5,Zn  6)          160.6145         0.295086   
     43. A(Zn  6,C   5,F  17)           79.4190         0.291117   
     44. A(C   3,C   5,Zn  6)           40.0172         0.294914   
     45. A(C   4,C   5,F  17)          119.9666         0.423723   
     46. A(C   3,C   5,F  17)          119.4362         0.423444   
     47. A(C   3,C   5,C   4)          120.5973         0.430011   
     48. A(C   5,Zn  6,C   7)          161.0634         0.341841   
     49. A(C   3,Zn  6,C   7)          133.6677         0.602720   
     50. A(C   3,Zn  6,C   5)           27.3957         0.341839   
     51. A(C   7,Zn  6,C  10)           27.3956         0.341842   
     52. A(C   5,Zn  6,C  10)          171.5410         0.213442   
     53. A(C   3,Zn  6,C  10)          161.0633         0.341840   
     54. A(Zn  6,C   7,C   8)          128.1214         0.506125   
     55. A(C   8,C   7,C  10)          119.2912         0.428709   
     56. A(Zn  6,C   7,C  10)          112.5874         0.507379   
     57. A(C   7,C   8,C   9)          120.1517         0.428411   
     58. A(C   9,C   8,F  22)          118.9347         0.425256   
     59. A(C   7,C   8,F  22)          120.9136         0.424543   
     60. A(C   8,C   9,C  12)          120.1581         0.429843   
     61. A(C   8,C   9,F  21)          119.9631         0.422867   
     62. A(C  12,C   9,F  21)          119.8787         0.423564   
     63. A(C   7,C  10,C  11)          120.5974         0.430012   
     64. A(Zn  6,C  10,C  11)          160.6144         0.295086   
     65. A(Zn  6,C  10,C   7)           40.0170         0.294916   
     66. A(C  11,C  10,F  18)          119.9666         0.423722   
     67. A(C   7,C  10,F  18)          119.4359         0.423445   
     68. A(Zn  6,C  10,F  18)           79.4189         0.291117   
     69. A(C  10,C  11,C  12)          119.9153         0.430655   
     70. A(C  12,C  11,F  19)          120.0473         0.423825   
     71. A(C  10,C  11,F  19)          120.0374         0.423472   
     72. A(C   9,C  12,C  11)          119.8862         0.430785   
     73. A(C  11,C  12,F  20)          120.0486         0.423827   
     74. A(C   9,C  12,F  20)          120.0652         0.423601   
     75. D(F  14,C   1,C   0,F  13)     -0.0000         0.024868   
     76. D(C   3,C   1,C   0,C   2)     -0.0005         0.024868   
     77. D(C   3,C   1,C   0,F  13)    179.9998         0.024868   
     78. D(F  14,C   1,C   0,C   2)    179.9997         0.024868   
     79. D(C   4,C   2,C   0,C   1)      0.0005         0.025360   
     80. D(F  15,C   2,C   0,F  13)     -0.0002         0.025360   
     81. D(F  15,C   2,C   0,C   1)   -180.0000         0.025360   
     82. D(C   4,C   2,C   0,F  13)   -179.9998         0.025360   
     83. D(Zn  6,C   3,C   1,C   0)    179.9999         0.024384   
     84. D(C   5,C   3,C   1,C   0)      0.0001         0.024384   
     85. D(C   5,C   3,C   1,F  14)    179.9999         0.024384   
     86. D(Zn  6,C   3,C   1,F  14)     -0.0003         0.024384   
     87. D(F  16,C   4,C   2,C   0)    179.9999         0.025515   
     88. D(C   5,C   4,C   2,F  15)   -179.9996         0.025515   
     89. D(C   5,C   4,C   2,C   0)     -0.0001         0.025515   
     90. D(F  16,C   4,C   2,F  15)      0.0003         0.025515   
     91. D(F  17,C   5,C   4,C   2)   -179.9995         0.027450   
     92. D(Zn  6,C   5,C   4,F  16)    179.9990         0.027450   
     93. D(Zn  6,C   5,C   4,C   2)     -0.0011         0.027450   
     94. D(C   3,C   5,C   4,F  16)    179.9998         0.027450   
     95. D(C   3,C   5,C   4,C   2)     -0.0003         0.027450   
     96. D(F  17,C   5,C   3,Zn  6)     -0.0004         0.027237   
     97. D(F  17,C   5,C   3,C   1)    179.9995         0.027237   
     98. D(Zn  6,C   5,C   3,C   1)    179.9998         0.027237   
     99. D(C   4,C   5,C   3,Zn  6)   -179.9996         0.027237   
    100. D(F  17,C   5,C   4,F  16)      0.0006         0.027450   
    101. D(C   4,C   5,C   3,C   1)      0.0003         0.027237   
    102. D(C  10,Zn  6,C   3,C   1)     -0.0023         0.004045   
    103. D(C   7,Zn  6,C   3,C   1)      0.0003         0.004045   
    104. D(C   5,Zn  6,C   3,C   1)   -179.9998         0.004045   
    105. D(C   7,Zn  6,C   3,C   5)   -179.9999         0.004045   
    106. D(C  10,Zn  6,C   5,F  17)      0.0050         0.001507   
    107. D(C  10,Zn  6,C   5,C   3)   -179.9946         0.001507   
    108. D(C   7,Zn  6,C   5,F  17)    180.0000         0.001507   
    109. D(C   7,Zn  6,C   5,C   4)      0.0014         0.001507   
    110. D(C   7,Zn  6,C   5,C   3)      0.0003         0.001507   
    111. D(C   3,Zn  6,C   5,F  17)    179.9997         0.001507   
    112. D(C  10,Zn  6,C   5,C   4)   -179.9936         0.001507   
    113. D(C   3,Zn  6,C   5,C   4)      0.0011         0.001507   
    114. D(C  10,Zn  6,C   3,C   5)    179.9976         0.004045   
    115. D(C  10,C   7,Zn  6,C   5)   -179.9984         0.004046   
    116. D(C  10,C   7,Zn  6,C   3)   -179.9982         0.004046   
    117. D(C   8,C   7,Zn  6,C  10)    179.9991         0.004046   
    118. D(C   8,C   7,Zn  6,C   5)      0.0007         0.004046   
    119. D(C   8,C   7,Zn  6,C   3)      0.0009         0.004046   
    120. D(F  22,C   8,C   7,C  10)   -179.9996         0.024382   
    121. D(F  22,C   8,C   7,Zn  6)      0.0013         0.024382   
    122. D(C   9,C   8,C   7,C  10)     -0.0005         0.024382   
    123. D(C   9,C   8,C   7,Zn  6)   -179.9996         0.024382   
    124. D(F  21,C   9,C   8,F  22)     -0.0000         0.024869   
    125. D(F  21,C   9,C   8,C   7)   -179.9992         0.024869   
    126. D(C  12,C   9,C   8,F  22)    179.9994         0.024869   
    127. D(C  12,C   9,C   8,C   7)      0.0002         0.024869   
    128. D(Zn  6,C  10,C   7,C   8)   -179.9992         0.027238   
    129. D(F  18,C  10,Zn  6,C   7)    179.9998         0.001507   
    130. D(F  18,C  10,Zn  6,C   5)     -0.0038         0.001507   
    131. D(F  18,C  10,Zn  6,C   3)   -179.9962         0.001507   
    132. D(C  11,C  10,Zn  6,C   7)     -0.0006         0.001507   
    133. D(C  11,C  10,Zn  6,C   5)    179.9958         0.001507   
    134. D(C  11,C  10,Zn  6,C   3)      0.0034         0.001507   
    135. D(C   7,C  10,Zn  6,C   5)    179.9964         0.001507   
    136. D(C  11,C  10,C   7,Zn  6)    179.9998         0.027238   
    137. D(C   7,C  10,Zn  6,C   3)      0.0040         0.001507   
    138. D(F  18,C  10,C   7,C   8)   -179.9994         0.027238   
    139. D(F  18,C  10,C   7,Zn  6)     -0.0002         0.027238   
    140. D(C  11,C  10,C   7,C   8)      0.0005         0.027238   
    141. D(F  19,C  11,C  10,F  18)      0.0000         0.027450   
    142. D(F  19,C  11,C  10,C   7)   -180.0000         0.027450   
    143. D(F  19,C  11,C  10,Zn  6)   -179.9995         0.027450   
    144. D(C  12,C  11,C  10,F  18)    179.9997         0.027450   
    145. D(C  12,C  11,C  10,C   7)     -0.0003         0.027450   
    146. D(C  12,C  11,C  10,Zn  6)      0.0002         0.027450   
    147. D(F  20,C  12,C  11,F  19)     -0.0002         0.025517   
    148. D(F  20,C  12,C  11,C  10)   -179.9998         0.025517   
    149. D(C   9,C  12,C  11,F  19)    179.9997         0.025517   
    150. D(C   9,C  12,C  11,C  10)      0.0000         0.025517   
    151. D(F  20,C  12,C   9,F  21)     -0.0007         0.025357   
    152. D(F  20,C  12,C   9,C   8)    179.9999         0.025357   
    153. D(C  11,C  12,C   9,F  21)    179.9995         0.025357   
    154. D(C  11,C  12,C   9,C   8)      0.0000         0.025357   
    -----------------------------------------------------------------

Number of atoms                         .... 23
Number of degrees of freedom            .... 154

         *************************************************************
         *                GEOMETRY OPTIMIZATION CYCLE   1            *
         *************************************************************
---------------------------------
CARTESIAN COORDINATES (ANGSTROEM)
---------------------------------
  C      0.375100    4.984680    0.818120
  C      0.060080    3.634070    0.621280
  C     -0.636760    5.908670    1.096410
  C     -1.272590    3.202030    0.702480
  C     -1.965260    5.482920    1.178210
  C     -2.278860    4.134090    0.981520
  Zn    -1.970660    1.389580    0.470550
  C     -1.140900   -0.336930    0.074700
  C      0.218300   -0.617570   -0.132900
  C      0.632310   -1.927170   -0.407970
  C     -2.073740   -1.378050    0.003670
  C     -1.661270   -2.686040   -0.270940
  C     -0.306710   -2.960890   -0.476990
  F      1.664570    5.398110    0.738760
  F      1.054850    2.764610    0.354420
  F     -0.329610    7.215990    1.286680
  F     -2.949370    6.376420    1.447980
  F     -3.567050    3.720000    1.060610
  F     -3.387310   -1.110290    0.203690
  F     -2.574920   -3.686270   -0.337140
  F      0.096250   -4.228250   -0.743460
  F      1.947100   -2.194130   -0.607990
  F      1.144350    0.359920   -0.072080

----------------------------
CARTESIAN COORDINATES (A.U.)
----------------------------
  NO LB      ZA    FRAG     MASS         X           Y           Z
   0 C     6.0000    0    12.011    0.708836    9.419680    1.546023
   1 C     6.0000    0    12.011    0.113535    6.867397    1.174049
   2 C     6.0000    0    12.011   -1.203302   11.165768    2.071915
   3 C     6.0000    0    12.011   -2.404847    6.050960    1.327495
   4 C     6.0000    0    12.011   -3.713803   10.361217    2.226494
   5 C     6.0000    0    12.011   -4.306421    7.812298    1.854804
   6 Zn   30.0000    0    65.380   -3.724008    2.625926    0.889211
   7 C     6.0000    0    12.011   -2.155989   -0.636705    0.141163
   8 C     6.0000    0    12.011    0.412527   -1.167038   -0.251145
   9 C     6.0000    0    12.011    1.194893   -3.641824   -0.770952
  10 C     6.0000    0    12.011   -3.918801   -2.604137    0.006935
  11 C     6.0000    0    12.011   -3.139345   -5.075880   -0.512002
  12 C     6.0000    0    12.011   -0.579598   -5.595271   -0.901380
  13 F     9.0000    0    18.998    3.145581   10.200950    1.396054
  14 F     9.0000    0    18.998    1.993378    5.224356    0.669757
  15 F     9.0000    0    18.998   -0.622873   13.636245    2.431473
  16 F     9.0000    0    18.998   -5.573502   12.049688    2.736286
  17 F     9.0000    0    18.998   -6.740748    7.029781    2.004262
  18 F     9.0000    0    18.998   -6.401088   -2.098144    0.384918
  19 F     9.0000    0    18.998   -4.865894   -6.966041   -0.637102
  20 F     9.0000    0    18.998    0.181886   -7.990235   -1.404936
  21 F     9.0000    0    18.998    3.679486   -4.146305   -1.148935
  22 F     9.0000    0    18.998    2.162508    0.680150   -0.136211

--------------------------------
INTERNAL COORDINATES (ANGSTROEM)
--------------------------------
 C      0   0   0     0.000000000000     0.00000000     0.00000000
 C      1   0   0     1.400760849717     0.00000000     0.00000000
 C      1   2   0     1.398235854139   120.15806274     0.00000000
 C      2   1   3     1.403303719977   120.15175425     0.00000000
 C      3   1   2     1.397450017890   119.88660391     0.00000000
 C      5   3   1     1.398704502388   119.91483884     0.00000000
 Zn     4   2   1     1.956033806533   128.12142164   179.99993402
 C      7   4   2     1.956025475345   133.66769517     0.00000000
 C      8   7   4     1.403310802923   128.12140981     0.00000000
 C      9   8   7     1.400756918598   120.15172106   180.00044588
 C      8   7   4     1.399702318674   112.58739143   180.00180816
 C     11   8   7     1.398706542882   120.59742105   179.99975081
 C     12  11   8     1.397437626014   119.91532234     0.00000000
 F      1   2   3     1.356449503446   119.96308515   180.00025529
 F      2   1   3     1.347865833123   118.93474889   179.99973950
 F      3   1   2     1.356329376590   120.06539246   180.00001133
 F      5   3   1     1.356315079545   120.04742815   179.99985189
 F      6   5   3     1.355418471285   119.96658189   180.00048991
 F     11   8   7     1.355422282132   119.43593141     0.00000000
 F     12  11   8     1.356318109958   120.03736762   180.00004709
 F     13  12  11     1.356312792869   120.04861053   180.00018093
 F     10   9   8     1.356446971356   119.96310779   180.00078318
 F      9   8   7     1.347870310898   120.91357920     0.00000000

---------------------------
INTERNAL COORDINATES (A.U.)
---------------------------
 C      0   0   0     0.000000000000     0.00000000     0.00000000
 C      1   0   0     2.647054385084     0.00000000     0.00000000
 C      1   2   0     2.642282834952   120.15806274     0.00000000
 C      2   1   3     2.651859713469   120.15175425     0.00000000
 C      3   1   2     2.640797819655   119.88660391     0.00000000
 C      5   3   1     2.643168451796   119.91483884     0.00000000
 Zn     4   2   1     3.696368203039   128.12142164   179.99993402
 C      7   4   2     3.696352459376   133.66769517     0.00000000
 C      8   7   4     2.651873098297   128.12140981     0.00000000
 C      9   8   7     2.647046956346   120.15172106   180.00044588
 C      8   7   4     2.645054051308   112.58739143   180.00180816
 C     11   8   7     2.643172307770   120.59742105   179.99975081
 C     12  11   8     2.640774402404   119.91532234     0.00000000
 F      1   2   3     2.563318076007   119.96308515   180.00025529
 F      2   1   3     2.547097289872   118.93474889   179.99973950
 F      3   1   2     2.563091069147   120.06539246   180.00001133
 F      5   3   1     2.563064051647   120.04742815   179.99985189
 F      6   5   3     2.561369707586   119.96658189   180.00048991
 F     11   8   7     2.561376909044   119.43593141     0.00000000
 F     12  11   8     2.563069778298   120.03736762   180.00004709
 F     13  12  11     2.563059730456   120.04861053   180.00018093
 F     10   9   8     2.563313291049   119.96310779   180.00078318
 F      9   8   7     2.547105751640   120.91357920     0.00000000

---------------------
BASIS SET INFORMATION
---------------------
There are 3 groups of distinct atoms

 Group   1 Type C   : 11s6p2d1f contracted to 5s3p2d1f pattern {62111/411/11/1}
 Group   2 Type Zn  : 17s12p7d1f contracted to 6s5p4d1f pattern {842111/63111/4111/1}
 Group   3 Type F   : 11s6p2d1f contracted to 5s3p2d1f pattern {62111/411/11/1}

Atom   0C    basis set group =>   1
Atom   1C    basis set group =>   1
Atom   2C    basis set group =>   1
Atom   3C    basis set group =>   1
Atom   4C    basis set group =>   1
Atom   5C    basis set group =>   1
Atom   6Zn   basis set group =>   2
Atom   7C    basis set group =>   1
Atom   8C    basis set group =>   1
Atom   9C    basis set group =>   1
Atom  10C    basis set group =>   1
Atom  11C    basis set group =>   1
Atom  12C    basis set group =>   1
Atom  13F    basis set group =>   3
Atom  14F    basis set group =>   3
Atom  15F    basis set group =>   3
Atom  16F    basis set group =>   3
Atom  17F    basis set group =>   3
Atom  18F    basis set group =>   3
Atom  19F    basis set group =>   3
Atom  20F    basis set group =>   3
Atom  21F    basis set group =>   3
Atom  22F    basis set group =>   3
---------------------------------
AUXILIARY/J BASIS SET INFORMATION
---------------------------------
There are 3 groups of distinct atoms

 Group   1 Type C   : 12s5p4d2f1g contracted to 6s4p3d1f1g pattern {711111/2111/211/2/1}
 Group   2 Type Zn  : 19s5p5d3f3g contracted to 8s5p5d2f3g pattern {121111111/11111/11111/21/111}
 Group   3 Type F   : 12s5p4d2f1g contracted to 6s4p3d1f1g pattern {711111/2111/211/2/1}

Atom   0C    basis set group =>   1
Atom   1C    basis set group =>   1
Atom   2C    basis set group =>   1
Atom   3C    basis set group =>   1
Atom   4C    basis set group =>   1
Atom   5C    basis set group =>   1
Atom   6Zn   basis set group =>   2
Atom   7C    basis set group =>   1
Atom   8C    basis set group =>   1
Atom   9C    basis set group =>   1
Atom  10C    basis set group =>   1
Atom  11C    basis set group =>   1
Atom  12C    basis set group =>   1
Atom  13F    basis set group =>   3
Atom  14F    basis set group =>   3
Atom  15F    basis set group =>   3
Atom  16F    basis set group =>   3
Atom  17F    basis set group =>   3
Atom  18F    basis set group =>   3
Atom  19F    basis set group =>   3
Atom  20F    basis set group =>   3
Atom  21F    basis set group =>   3
Atom  22F    basis set group =>   3
--------------------------------------------------------------------------
[[63693,1],0]: A high-performance Open MPI point-to-point messaging module
was unable to find any relevant network interfaces:

Module: OpenFabrics (openib)
  Host: compute-1-6

Another transport will be used instead, although this may result in
lower performance.

NOTE: You can disable this warning by setting the MCA parameter
btl_base_warn_component_unused to 0.
--------------------------------------------------------------------------


           ************************************************************
           *        Program running with 4 parallel MPI-processes     *
           *              working on a common directory               *
           ************************************************************
------------------------------------------------------------------------------
                           ORCA GTO INTEGRAL CALCULATION
------------------------------------------------------------------------------

                         BASIS SET STATISTICS AND STARTUP INFO

 # of primitive gaussian shells          ...  477
 # of primitive gaussian functions       ... 1107
 # of contracted shells                  ...  258
 # of contracted basis functions         ...  730
 Highest angular momentum                ...    3
 Maximum contraction depth               ...    8
 Integral package used                   ... LIBINT
 Integral threshhold            Thresh   ...  2.500e-11
 Primitive cut-off              TCut     ...  2.500e-12


------------------------------ INTEGRAL EVALUATION ----------------------------


 * One electron integrals 
 Pre-screening matrix                    ... done
 Shell pair data                         ... done (   0.009 sec)

[compute-1-6.local:44104] 3 more processes have sent help message help-mpi-btl-base.txt / btl:no-nics
[compute-1-6.local:44104] Set MCA parameter "orte_base_help_aggregate" to 0 to see all help / error messages
--------------------------------------------------------------------------
[[63707,1],1]: A high-performance Open MPI point-to-point messaging module
was unable to find any relevant network interfaces:

Module: OpenFabrics (openib)
  Host: compute-1-6

Another transport will be used instead, although this may result in
lower performance.

NOTE: You can disable this warning by setting the MCA parameter
btl_base_warn_component_unused to 0.
--------------------------------------------------------------------------


           ************************************************************
           *        Program running with 4 parallel MPI-processes     *
           *              working on a common directory               *
           ************************************************************
-------------------------------------------------------------------------------
                                 ORCA SCF
-------------------------------------------------------------------------------

------------
SCF SETTINGS
------------
Hamiltonian:
 Density Functional     Method          .... DFT(GTOs)
 Exchange Functional    Exchange        .... WB97X-D3
 Correlation Functional Correlation     .... WB97X-D3
 Gradients option       PostSCFGGA      .... off
 Hybrid DFT is turned on
   Fraction HF Exchange ScalHFX         ....  0.195728
   Scaling of DF-GGA-X  ScalDFX         ....  0.000000
   Scaling of DF-GGA-C  ScalDFC         ....  1.000000
   Scaling of DF-LDA-C  ScalLDAC        ....  1.000000
   Perturbative correction              ....  0.000000
   Density functional embedding theory  .... OFF
 Long-range corrected/Screened/Range-Separated Hybrid DFT is turned on
   Amount of maximum screened exact exchange              ....  0.804272
   Range separation parameter mu (erf(mu*r12)/r12)        ....  0.250000


General Settings:
 Integral files         IntName         .... ZnC6F52
 Hartree-Fock type      HFTyp           .... RHF
 Total Charge           Charge          ....    0
 Multiplicity           Mult            ....    1
 Number of Electrons    NEL             ....  192
 Basis Dimension        Dim             ....  730
 Nuclear Repulsion      ENuc            ....   2416.4273254943 Eh

Convergence Acceleration:
 DIIS                   CNVDIIS         .... on
   Start iteration      DIISMaxIt       ....    12
   Startup error        DIISStart       ....  0.200000
   # of expansion vecs  DIISMaxEq       ....     5
   Bias factor          DIISBfac        ....   1.050
   Max. coefficient     DIISMaxC        ....  10.000
 Newton-Raphson         CNVNR           .... off
 SOSCF                  CNVSOSCF        .... off
 Level Shifting         CNVShift        .... on
   Level shift para.    LevelShift      ....    0.2500
   Turn off err/grad.   ShiftErr        ....    0.0010
 Zerner damping         CNVZerner       .... off
 Static damping         CNVDamp         .... on
   Fraction old density DampFac         ....    0.7000
   Max. Damping (<1)    DampMax         ....    0.9800
   Min. Damping (>=0)   DampMin         ....    0.0000
   Turn off err/grad.   DampErr         ....    0.1000
 Fernandez-Rico         CNVRico         .... off

SCF Procedure:
 Maximum # iterations   MaxIter         ....   125
 SCF integral mode      SCFMode         .... Direct
   Integral package                     .... LIBINT
 Reset frequency        DirectResetFreq ....    20
 Integral Threshold     Thresh          ....  2.500e-11 Eh
 Primitive CutOff       TCut            ....  2.500e-12 Eh

Convergence Tolerance:
 Convergence Check Mode ConvCheckMode   .... Total+1el-Energy
 Convergence forced     ConvForced      .... 0
 Energy Change          TolE            ....  1.000e-08 Eh
 1-El. energy change                    ....  1.000e-05 Eh
 DIIS Error             TolErr          ....  5.000e-07


Diagonalization of the overlap matrix:
Smallest eigenvalue                        ... 1.516e-05
Time for diagonalization                   ...    0.246 sec
Threshold for overlap eigenvalues          ... 1.000e-08
Number of eigenvalues below threshold      ... 0
Time for construction of square roots      ...    0.096 sec
Total time needed                          ...    0.345 sec

-------------------
DFT GRID GENERATION
-------------------

General Integration Accuracy     IntAcc      ...  4.340
Radial Grid Type                 RadialGrid  ... Gauss-Chebyshev
Angular Grid (max. acc.)         AngularGrid ... Lebedev-110
Angular grid pruning method      GridPruning ... 3 (G Style)
Weight generation scheme         WeightScheme... Becke
Basis function cutoff            BFCut       ...    1.0000e-11
Integration weight cutoff        WCut        ...    1.0000e-14
Grids for H and He will be reduced by one unit

# of grid points (after initial pruning)     ...  40184 (   0.0 sec)
# of grid points (after weights+screening)   ...  37125 (   0.1 sec)
nearest neighbour list constructed           ...    0.0 sec
Grid point re-assignment to atoms done       ...    0.0 sec
Grid point division into batches done        ...    0.1 sec
Reduced shell lists constructed in    0.3 sec

Total number of grid points                  ...    37125
Total number of batches                      ...      590
Average number of points per batch           ...       62
Average number of grid points per atom       ...     1614
Average number of shells per batch           ...   118.57 (45.96%)
Average number of basis functions per batch  ...   337.67 (46.26%)
Average number of large shells per batch     ...    85.54 (72.15%)
Average number of large basis fcns per batch ...   244.42 (72.38%)
Maximum spatial batch extension              ...   7.94,  6.24, 20.29 au
Average spatial batch extension              ...   0.55,  0.55,  0.89 au

Time for grid setup =    0.409 sec

------------------------------
INITIAL GUESS: MODEL POTENTIAL
------------------------------
Loading Hartree-Fock densities                     ... done
Calculating cut-offs                               ... done
Setting up the integral package                    ... done
Initializing the effective Hamiltonian             ... done
Starting the Coulomb interaction                   ... done (   0.6 sec)
Reading the grid                                   ... done
Mapping shells                                     ... done
Starting the XC term evaluation                    ... done (   0.6 sec)
  promolecular density results
     # of electrons  =    192.000083640
     EX              =   -230.920274222
     EC              =     -7.052794859
     EX+EC           =   -237.973069081
Transforming the Hamiltonian                       ... done (   0.1 sec)
Diagonalizing the Hamiltonian                      ... done (   0.2 sec)
Back transforming the eigenvectors                 ... done (   0.0 sec)
Now organizing SCF variables                       ... done
                      ------------------
                      INITIAL GUESS DONE (   2.1 sec)
                      ------------------

--------------------
CPCM SOLVATION MODEL
--------------------
CPCM parameters:
  Epsilon                                         ...       3.0000
  Refrac                                          ...       1.3300
  Rsolv                                           ...       1.3000
  Surface type                                    ...    GEPOL SES
  Epsilon function type                           ...         CPCM
Radii:
 Radius for C  used is    3.7795 Bohr (=   2.0000 Ang.)
 Radius for Zn used is    4.2009 Bohr (=   2.2230 Ang.)
 Radius for F  used is    3.2503 Bohr (=   1.7200 Ang.)
Calculating surface                               ...        done! (  0.1s)
GEPOL surface points                              ...          890
GEPOL Volume                                      ...    2111.6967
GEPOL Surface-area                                ...    1054.6893
Calculating surface distance matrix               ...        done! (  0.0s)
Performing Cholesky decomposition & store         ...        done! (  0.0s)
Overall time for CPCM initialization              ...                 0.1s
--------------
SCF ITERATIONS
--------------
ITER       Energy         Delta-E        Max-DP      RMS-DP      [F,P]     Damp
               ***  Starting incremental Fock matrix formation  ***
[compute-1-6.local:44126] 3 more processes have sent help message help-mpi-btl-base.txt / btl:no-nics
[compute-1-6.local:44126] Set MCA parameter "orte_base_help_aggregate" to 0 to see all help / error messages
  0  -3234.9363960550   0.000000000000 0.14818932  0.00072976  0.3743499 0.7000
  1  -3235.0807704720  -0.144374417028 0.09285016  0.00044699  0.1103330 0.7000
                               ***Turning on DIIS***
  2  -3235.1454093986  -0.064638926618 0.11032442  0.00073018  0.0459034 0.0000
  3  -3235.2607627793  -0.115353380660 0.09469076  0.00046307  0.0494277 0.0000
  4  -3235.2739133302  -0.013150550936 0.01691799  0.00011246  0.0338581 0.0000
  5  -3235.2745867313  -0.000673401100 0.01255669  0.00006859  0.0243373 0.0000
  6  -3235.2750310032  -0.000444271873 0.00379266  0.00002154  0.0016483 0.0000
  7  -3235.2750673024  -0.000036299214 0.00159483  0.00001138  0.0004972 0.0000
  8  -3235.2750801972  -0.000012894774 0.00028164  0.00000440  0.0004880 0.0000
  9  -3235.2750827985  -0.000002601345 0.00020965  0.00000254  0.0001743 0.0000
 10  -3235.2750833239  -0.000000525353 0.00017465  0.00000096  0.0000723 0.0000
 11  -3235.2750833733  -0.000000049458 0.00002850  0.00000041  0.0000799 0.0000
 12  -3235.2750833835  -0.000000010144 0.00003728  0.00000023  0.0000652 0.0000
 13  -3235.2750833837  -0.000000000207 0.00001468  0.00000013  0.0000229 0.0000
 14  -3235.2750833788   0.000000004894 0.00000490  0.00000008  0.0000038 0.0000
 15  -3235.2750833729   0.000000005931 0.00001418  0.00000013  0.0000015 0.0000
                            ***DIIS convergence achieved***

               *****************************************************
               *                     SUCCESS                       *
               *           SCF CONVERGED AFTER  16 CYCLES          *
               *****************************************************

Setting up the final grid:

General Integration Accuracy     IntAcc      ...  4.670
Radial Grid Type                 RadialGrid  ... Gauss-Chebyshev
Angular Grid (max. acc.)         AngularGrid ... Lebedev-302
Angular grid pruning method      GridPruning ... 3 (G Style)
Weight generation scheme         WeightScheme... Becke
Basis function cutoff            BFCut       ...    1.0000e-11
Integration weight cutoff        WCut        ...    1.0000e-14
Grids for H and He will be reduced by one unit

# of grid points (after initial pruning)     ... 146904 (   0.0 sec)
# of grid points (after weights+screening)   ... 133566 (   0.3 sec)
nearest neighbour list constructed           ...    0.0 sec
Grid point re-assignment to atoms done       ...    0.0 sec
Grid point division into batches done        ...    0.9 sec
Reduced shell lists constructed in    1.7 sec

Total number of grid points                  ...   133566
Total number of batches                      ...     2100
Average number of points per batch           ...       63
Average number of grid points per atom       ...     5807
Average number of shells per batch           ...   109.50 (42.44%)
Average number of basis functions per batch  ...   309.50 (42.40%)
Average number of large shells per batch     ...    78.37 (71.57%)
Average number of large basis fcns per batch ...   222.15 (71.78%)
Maximum spatial batch extension              ...   8.76,  6.92, 23.46 au
Average spatial batch extension              ...   0.38,  0.38,  0.50 au

Final grid set up in    2.0 sec
Final integration                            ... done (   2.3 sec)
Change in XC energy                          ...     0.008438241
Integrated number of electrons               ...   191.999927659
Previous integrated no of electrons          ...   191.999959557

----------------
TOTAL SCF ENERGY
----------------

Total Energy       :        -3235.26664513 Eh          -88036.08108 eV

Components:
Nuclear Repulsion  :         2416.42732549 Eh           65754.33041 eV
Electronic Energy  :        -5651.69397062 Eh         -153790.41149 eV
One Electron Energy:        -9307.16843613 Eh         -253260.92868 eV
Two Electron Energy:         3655.47446551 Eh           99470.51719 eV
CPCM Dielectric    :           -0.01024923 Eh              -0.27890 eV

Virial components:
Potential Energy   :        -6462.28394669 Eh         -175847.68611 eV
Kinetic Energy     :         3227.01730156 Eh           87811.60503 eV
Virial Ratio       :            2.00255634


DFT components:
N(Alpha)           :       95.999963829337 electrons
N(Beta)            :       95.999963829337 electrons
N(Total)           :      191.999927658673 electrons
E(XC)              :     -174.255269241323 Eh       
DFET-embed. en.    :        0.000000000000 Eh       
CPCM Solvation Model Properties:
Surface-charge          :           -0.01521352
Charge-correction       :            0.00017410 Eh               0.00474 eV
Free-energy (cav+disp)  :            0.00528865 Eh               0.14391 eV
Corrected G(solv)       :        -3235.26118238 Eh          -88035.93243 eV

---------------
SCF CONVERGENCE
---------------

  Last Energy change         ...    5.5657e-09  Tolerance :   1.0000e-08
  Last MAX-Density change    ...    8.7388e-06  Tolerance :   1.0000e-07
  Last RMS-Density change    ...    8.0131e-08  Tolerance :   5.0000e-09
  Last DIIS Error            ...    6.8406e-07  Tolerance :   5.0000e-07

             **** THE GBW FILE WAS UPDATED (ZnC6F52.gbw) ****
             **** DENSITY FILE WAS UPDATED (ZnC6F52.scfp) ****
             **** ENERGY FILE WAS UPDATED (ZnC6F52.en.tmp) ****
             **** THE GBW FILE WAS UPDATED (ZnC6F52.gbw) ****
             **** DENSITY FILE WAS UPDATED (ZnC6F52.scfp) ****
----------------
ORBITAL ENERGIES
----------------

  NO   OCC          E(Eh)            E(eV) 
   0   2.0000    -347.392627     -9453.0340 
   1   2.0000     -42.372857     -1153.0241 
   2   2.0000     -37.338940     -1016.0442 
   3   2.0000     -37.337939     -1016.0170 
   4   2.0000     -37.335162     -1015.9414 
   5   2.0000     -24.832113      -675.7161 
   6   2.0000     -24.832105      -675.7159 
   7   2.0000     -24.831041      -675.6870 
   8   2.0000     -24.830923      -675.6838 
   9   2.0000     -24.824882      -675.5194 
  10   2.0000     -24.824698      -675.5144 
  11   2.0000     -24.824353      -675.5050 
  12   2.0000     -24.824336      -675.5045 
  13   2.0000     -24.819001      -675.3593 
  14   2.0000     -24.818841      -675.3550 
  15   2.0000     -10.410869      -283.2941 
  16   2.0000     -10.410847      -283.2935 
  17   2.0000     -10.403858      -283.1034 
  18   2.0000     -10.403798      -283.1017 
  19   2.0000     -10.403155      -283.0842 
  20   2.0000     -10.403083      -283.0823 
  21   2.0000     -10.402450      -283.0651 
  22   2.0000     -10.402375      -283.0630 
  23   2.0000     -10.402323      -283.0616 
  24   2.0000     -10.402302      -283.0610 
  25   2.0000     -10.309177      -280.5270 
  26   2.0000     -10.309136      -280.5259 
  27   2.0000      -4.984373      -135.6317 
  28   2.0000      -3.374354       -91.8208 
  29   2.0000      -3.373166       -91.7885 
  30   2.0000      -3.367199       -91.6261 
  31   2.0000      -1.381266       -37.5862 
  32   2.0000      -1.381146       -37.5829 
  33   2.0000      -1.376762       -37.4636 
  34   2.0000      -1.376324       -37.4517 
  35   2.0000      -1.371235       -37.3132 
  36   2.0000      -1.368702       -37.2443 
  37   2.0000      -1.362320       -37.0706 
  38   2.0000      -1.361086       -37.0370 
  39   2.0000      -1.357751       -36.9463 
  40   2.0000      -1.355985       -36.8982 
  41   2.0000      -1.019494       -27.7418 
  42   2.0000      -1.018927       -27.7264 
  43   2.0000      -0.900613       -24.5069 
  44   2.0000      -0.899563       -24.4784 
  45   2.0000      -0.899379       -24.4733 
  46   2.0000      -0.896900       -24.4059 
  47   2.0000      -0.783342       -21.3158 
  48   2.0000      -0.777973       -21.1697 
  49   2.0000      -0.777167       -21.1478 
  50   2.0000      -0.775553       -21.1039 
  51   2.0000      -0.711813       -19.3694 
  52   2.0000      -0.705314       -19.1926 
  53   2.0000      -0.700357       -19.0577 
  54   2.0000      -0.698182       -18.9985 
  55   2.0000      -0.687777       -18.7154 
  56   2.0000      -0.682355       -18.5678 
  57   2.0000      -0.655701       -17.8425 
  58   2.0000      -0.652800       -17.7636 
  59   2.0000      -0.652664       -17.7599 
  60   2.0000      -0.651191       -17.7198 
  61   2.0000      -0.649084       -17.6625 
  62   2.0000      -0.648937       -17.6585 
  63   2.0000      -0.648737       -17.6530 
  64   2.0000      -0.644911       -17.5489 
  65   2.0000      -0.643525       -17.5112 
  66   2.0000      -0.634984       -17.2788 
  67   2.0000      -0.632569       -17.2131 
  68   2.0000      -0.623658       -16.9706 
  69   2.0000      -0.614113       -16.7109 
  70   2.0000      -0.608349       -16.5540 
  71   2.0000      -0.607079       -16.5195 
  72   2.0000      -0.598232       -16.2787 
  73   2.0000      -0.594890       -16.1878 
  74   2.0000      -0.579611       -15.7720 
  75   2.0000      -0.577803       -15.7228 
  76   2.0000      -0.573175       -15.5969 
  77   2.0000      -0.571557       -15.5529 
  78   2.0000      -0.560453       -15.2507 
  79   2.0000      -0.554122       -15.0784 
  80   2.0000      -0.549614       -14.9558 
  81   2.0000      -0.548165       -14.9163 
  82   2.0000      -0.537058       -14.6141 
  83   2.0000      -0.529793       -14.4164 
  84   2.0000      -0.524019       -14.2593 
  85   2.0000      -0.518232       -14.1018 
  86   2.0000      -0.494322       -13.4512 
  87   2.0000      -0.488759       -13.2998 
  88   2.0000      -0.467694       -12.7266 
  89   2.0000      -0.466491       -12.6939 
  90   2.0000      -0.464839       -12.6489 
  91   2.0000      -0.392584       -10.6828 
  92   2.0000      -0.364521        -9.9191 
  93   2.0000      -0.357057        -9.7160 
  94   2.0000      -0.351181        -9.5561 
  95   2.0000      -0.350302        -9.5322 
  96   0.0000       0.001109         0.0302 
  97   0.0000       0.002352         0.0640 
  98   0.0000       0.043058         1.1717 
  99   0.0000       0.048129         1.3096 
 100   0.0000       0.049527         1.3477 
 101   0.0000       0.066768         1.8169 
 102   0.0000       0.074284         2.0214 
 103   0.0000       0.092024         2.5041 
 104   0.0000       0.107400         2.9225 
 105   0.0000       0.131560         3.5799 
 106   0.0000       0.152858         4.1595 
 107   0.0000       0.158818         4.3217 
 108   0.0000       0.165937         4.5154 
 109   0.0000       0.198087         5.3902 
 110   0.0000       0.207779         5.6540 
 111   0.0000       0.207884         5.6568 
 112   0.0000       0.226862         6.1732 
 113   0.0000       0.233847         6.3633 
 114   0.0000       0.248574         6.7641 
 115   0.0000       0.249129         6.7791 
 116   0.0000       0.256031         6.9670 
 117   0.0000       0.259936         7.0732 
 118   0.0000       0.261992         7.1292 
 119   0.0000       0.270333         7.3561 
 120   0.0000       0.271058         7.3759 
 121   0.0000       0.272673         7.4198 
 122   0.0000       0.284506         7.7418 
 123   0.0000       0.287252         7.8165 
 124   0.0000       0.296163         8.0590 
 125   0.0000       0.303348         8.2545 
 126   0.0000       0.304729         8.2921 
 127   0.0000       0.324601         8.8328 
 128   0.0000       0.327159         8.9025 
 129   0.0000       0.336269         9.1503 
 130   0.0000       0.339847         9.2477 
 131   0.0000       0.341559         9.2943 
 132   0.0000       0.347758         9.4630 
 133   0.0000       0.351724         9.5709 
 134   0.0000       0.355849         9.6831 
 135   0.0000       0.368243        10.0204 
 136   0.0000       0.373588        10.1658 
 137   0.0000       0.374356        10.1867 
 138   0.0000       0.380133        10.3439 
 139   0.0000       0.385451        10.4887 
 140   0.0000       0.388702        10.5771 
 141   0.0000       0.396141        10.7795 
 142   0.0000       0.400288        10.8924 
 143   0.0000       0.410292        11.1646 
 144   0.0000       0.416320        11.3286 
 145   0.0000       0.427803        11.6411 
 146   0.0000       0.429560        11.6889 
 147   0.0000       0.432960        11.7814 
 148   0.0000       0.443183        12.0596 
 149   0.0000       0.454840        12.3768 
 150   0.0000       0.455866        12.4047 
 151   0.0000       0.460856        12.5405 
 152   0.0000       0.462283        12.5794 
 153   0.0000       0.469639        12.7795 
 154   0.0000       0.481789        13.1101 
 155   0.0000       0.484361        13.1801 
 156   0.0000       0.490752        13.3540 
 157   0.0000       0.494701        13.4615 
 158   0.0000       0.496146        13.5008 
 159   0.0000       0.503203        13.6929 
 160   0.0000       0.507199        13.8016 
 161   0.0000       0.510907        13.9025 
 162   0.0000       0.512298        13.9403 
 163   0.0000       0.518628        14.1126 
 164   0.0000       0.536633        14.6025 
 165   0.0000       0.537399        14.6234 
 166   0.0000       0.540768        14.7150 
 167   0.0000       0.545258        14.8372 
 168   0.0000       0.549753        14.9595 
 169   0.0000       0.564923        15.3723 
 170   0.0000       0.580453        15.7949 
 171   0.0000       0.583468        15.8770 
 172   0.0000       0.597352        16.2548 
 173   0.0000       0.614487        16.7210 
 174   0.0000       0.615977        16.7616 
 175   0.0000       0.621427        16.9099 
 176   0.0000       0.622109        16.9284 
 177   0.0000       0.641134        17.4462 
 178   0.0000       0.652501        17.7554 
 179   0.0000       0.663030        18.0420 
 180   0.0000       0.680235        18.5101 
 181   0.0000       0.692185        18.8353 
 182   0.0000       0.694521        18.8989 
 183   0.0000       0.701112        19.0782 
 184   0.0000       0.701805        19.0971 
 185   0.0000       0.702383        19.1128 
 186   0.0000       0.712727        19.3943 
 187   0.0000       0.719254        19.5719 
 188   0.0000       0.724250        19.7079 
 189   0.0000       0.736657        20.0454 
 190   0.0000       0.739516        20.1233 
 191   0.0000       0.756433        20.5836 
 192   0.0000       0.759614        20.6702 
 193   0.0000       0.762493        20.7485 
 194   0.0000       0.763113        20.7654 
 195   0.0000       0.782258        21.2863 
 196   0.0000       0.785065        21.3627 
 197   0.0000       0.790777        21.5181 
 198   0.0000       0.791527        21.5385 
 199   0.0000       0.796027        21.6610 
 200   0.0000       0.805373        21.9153 
 201   0.0000       0.817818        22.2540 
 202   0.0000       0.819319        22.2948 
 203   0.0000       0.832318        22.6485 
 204   0.0000       0.832691        22.6587 
 205   0.0000       0.865302        23.5461 
 206   0.0000       0.870486        23.6871 
 207   0.0000       0.879417        23.9301 
 208   0.0000       0.883307        24.0360 
 209   0.0000       0.891589        24.2614 
 210   0.0000       0.894003        24.3271 
 211   0.0000       0.906219        24.6595 
 212   0.0000       0.908394        24.7187 
 213   0.0000       0.922938        25.1144 
 214   0.0000       0.930247        25.3133 
 215   0.0000       0.935607        25.4592 
 216   0.0000       0.942224        25.6392 
 217   0.0000       0.946055        25.7435 
 218   0.0000       0.949698        25.8426 
 219   0.0000       0.953214        25.9383 
 220   0.0000       0.954451        25.9719 
 221   0.0000       0.957372        26.0514 
 222   0.0000       0.959693        26.1146 
 223   0.0000       0.962694        26.1962 
 224   0.0000       0.973355        26.4863 
 225   0.0000       0.975385        26.5416 
 226   0.0000       0.986582        26.8463 
 227   0.0000       1.001762        27.2593 
 228   0.0000       1.013672        27.5834 
 229   0.0000       1.029328        28.0094 
 230   0.0000       1.032253        28.0890 
 231   0.0000       1.050979        28.5986 
 232   0.0000       1.056580        28.7510 
 233   0.0000       1.065176        28.9849 
 234   0.0000       1.066808        29.0293 
 235   0.0000       1.081181        29.4204 
 236   0.0000       1.081248        29.4223 
 237   0.0000       1.109712        30.1968 
 238   0.0000       1.118621        30.4392 
 239   0.0000       1.124141        30.5894 
 240   0.0000       1.124816        30.6078 
 241   0.0000       1.151052        31.3217 
 242   0.0000       1.151149        31.3244 
 243   0.0000       1.159162        31.5424 
 244   0.0000       1.169423        31.8216 
 245   0.0000       1.173626        31.9360 
 246   0.0000       1.178803        32.0769 
 247   0.0000       1.180150        32.1135 
 248   0.0000       1.184961        32.2444 
 249   0.0000       1.194954        32.5164 
 250   0.0000       1.201307        32.6892 
 251   0.0000       1.222636        33.2696 
 252   0.0000       1.224241        33.3133 
 253   0.0000       1.230011        33.4703 
 254   0.0000       1.239070        33.7168 
 255   0.0000       1.239106        33.7178 
 256   0.0000       1.246906        33.9300 
 257   0.0000       1.264887        34.4193 
 258   0.0000       1.273237        34.6465 
 259   0.0000       1.294724        35.2312 
 260   0.0000       1.303407        35.4675 
 261   0.0000       1.310580        35.6627 
 262   0.0000       1.317528        35.8517 
 263   0.0000       1.328458        36.1492 
 264   0.0000       1.362737        37.0819 
 265   0.0000       1.370199        37.2850 
 266   0.0000       1.370364        37.2895 
 267   0.0000       1.371579        37.3226 
 268   0.0000       1.381978        37.6055 
 269   0.0000       1.415373        38.5143 
 270   0.0000       1.430828        38.9348 
 271   0.0000       1.437959        39.1289 
 272   0.0000       1.452186        39.5160 
 273   0.0000       1.459146        39.7054 
 274   0.0000       1.462174        39.7878 
 275   0.0000       1.472187        40.0603 
 276   0.0000       1.492999        40.6266 
 277   0.0000       1.503265        40.9059 
 278   0.0000       1.511329        41.1253 
 279   0.0000       1.515937        41.2507 
 280   0.0000       1.524667        41.4883 
 281   0.0000       1.524739        41.4903 
 282   0.0000       1.541090        41.9352 
 283   0.0000       1.543179        41.9920 
 284   0.0000       1.543313        41.9957 
 285   0.0000       1.553048        42.2606 
 286   0.0000       1.587038        43.1855 
 287   0.0000       1.598377        43.4941 
 288   0.0000       1.601735        43.5854 
 289   0.0000       1.631930        44.4071 
 290   0.0000       1.683976        45.8233 
 291   0.0000       1.687392        45.9163 
 292   0.0000       1.704582        46.3840 
 293   0.0000       1.711202        46.5642 
 294   0.0000       1.720649        46.8212 
 295   0.0000       1.740237        47.3543 
 296   0.0000       1.798428        48.9377 
 297   0.0000       1.812362        49.3169 
 298   0.0000       1.813867        49.3578 
 299   0.0000       1.815973        49.4151 
 300   0.0000       1.824586        49.6495 
 301   0.0000       1.834894        49.9300 
 302   0.0000       1.846293        50.2402 
 303   0.0000       1.865141        50.7531 
 304   0.0000       1.865884        50.7733 
 305   0.0000       1.875321        51.0301 
 306   0.0000       1.904037        51.8115 
 307   0.0000       1.910179        51.9786 
 308   0.0000       1.916842        52.1599 
 309   0.0000       1.946594        52.9695 
 310   0.0000       1.976670        53.7879 
 311   0.0000       1.984654        54.0052 
 312   0.0000       2.015761        54.8516 
 313   0.0000       2.017891        54.9096 
 314   0.0000       2.019406        54.9508 
 315   0.0000       2.022405        55.0325 
 316   0.0000       2.029173        55.2166 
 317   0.0000       2.042025        55.5663 
 318   0.0000       2.042518        55.5797 
 319   0.0000       2.064197        56.1697 
 320   0.0000       2.070422        56.3390 
 321   0.0000       2.074394        56.4471 
 322   0.0000       2.096369        57.0451 
 323   0.0000       2.119976        57.6875 
 324   0.0000       2.120616        57.7049 
 325   0.0000       2.127120        57.8819 
 326   0.0000       2.130101        57.9630 
 327   0.0000       2.138296        58.1860 
 328   0.0000       2.148950        58.4759 
 329   0.0000       2.149204        58.4828 
 330   0.0000       2.152137        58.5626 
 331   0.0000       2.160652        58.7943 
 332   0.0000       2.173976        59.1569 
 333   0.0000       2.182578        59.3910 
 334   0.0000       2.194834        59.7245 
 335   0.0000       2.207093        60.0581 
 336   0.0000       2.223142        60.4948 
 337   0.0000       2.235181        60.8224 
 338   0.0000       2.236714        60.8641 
 339   0.0000       2.255610        61.3783 
 340   0.0000       2.256375        61.3991 
 341   0.0000       2.263589        61.5954 
 342   0.0000       2.265066        61.6356 
 343   0.0000       2.268016        61.7158 
 344   0.0000       2.295352        62.4597 
 345   0.0000       2.304454        62.7074 
 346   0.0000       2.329809        63.3973 
 347   0.0000       2.331336        63.4389 
 348   0.0000       2.364255        64.3347 
 349   0.0000       2.370340        64.5002 
 350   0.0000       2.375985        64.6538 
 351   0.0000       2.401700        65.3536 
 352   0.0000       2.408435        65.5369 
 353   0.0000       2.414214        65.6941 
 354   0.0000       2.455032        66.8048 
 355   0.0000       2.477975        67.4291 
 356   0.0000       2.494851        67.8884 
 357   0.0000       2.495282        67.9001 
 358   0.0000       2.524147        68.6855 
 359   0.0000       2.525580        68.7245 
 360   0.0000       2.537394        69.0460 
 361   0.0000       2.568293        69.8868 
 362   0.0000       2.569709        69.9253 
 363   0.0000       2.572486        70.0009 
 364   0.0000       2.579168        70.1827 
 365   0.0000       2.581906        70.2572 
 366   0.0000       2.598559        70.7104 
 367   0.0000       2.616003        71.1851 
 368   0.0000       2.619755        71.2872 
 369   0.0000       2.634670        71.6930 
 370   0.0000       2.643812        71.9418 
 371   0.0000       2.661103        72.4123 
 372   0.0000       2.664341        72.5004 
 373   0.0000       2.669542        72.6419 
 374   0.0000       2.677618        72.8617 
 375   0.0000       2.706527        73.6484 
 376   0.0000       2.708006        73.6886 
 377   0.0000       2.723887        74.1207 
 378   0.0000       2.731439        74.3262 
 379   0.0000       2.749530        74.8185 
 380   0.0000       2.752423        74.8972 
 381   0.0000       2.779207        75.6261 
 382   0.0000       2.779944        75.6461 
 383   0.0000       2.812745        76.5387 
 384   0.0000       2.816490        76.6406 
 385   0.0000       2.837343        77.2080 
 386   0.0000       2.845639        77.4338 
 387   0.0000       2.869704        78.0886 
 388   0.0000       2.875742        78.2529 
 389   0.0000       2.877519        78.3013 
 390   0.0000       2.887541        78.5740 
 391   0.0000       2.894341        78.7590 
 392   0.0000       2.898457        78.8710 
 393   0.0000       2.902505        78.9812 
 394   0.0000       2.903843        79.0176 
 395   0.0000       2.911823        79.2347 
 396   0.0000       2.921577        79.5002 
 397   0.0000       2.933058        79.8126 
 398   0.0000       2.933960        79.8371 
 399   0.0000       2.945348        80.1470 
 400   0.0000       2.955649        80.4273 
 401   0.0000       2.959782        80.5398 
 402   0.0000       2.960056        80.5472 
 403   0.0000       2.984239        81.2053 
 404   0.0000       2.988696        81.3266 
 405   0.0000       2.994751        81.4913 
 406   0.0000       3.001052        81.6628 
 407   0.0000       3.002242        81.6951 
 408   0.0000       3.002478        81.7016 
 409   0.0000       3.008010        81.8521 
 410   0.0000       3.022472        82.2456 
 411   0.0000       3.030067        82.4523 
 412   0.0000       3.038057        82.6697 
 413   0.0000       3.046516        82.8999 
 414   0.0000       3.051249        83.0287 
 415   0.0000       3.064150        83.3798 
 416   0.0000       3.066152        83.4342 
 417   0.0000       3.079206        83.7894 
 418   0.0000       3.080081        83.8133 
 419   0.0000       3.088694        84.0476 
 420   0.0000       3.093690        84.1836 
 421   0.0000       3.096197        84.2518 
 422   0.0000       3.110519        84.6415 
 423   0.0000       3.117209        84.8236 
 424   0.0000       3.117617        84.8347 
 425   0.0000       3.123656        84.9990 
 426   0.0000       3.138323        85.3981 
 427   0.0000       3.144398        85.5634 
 428   0.0000       3.147524        85.6485 
 429   0.0000       3.156713        85.8985 
 430   0.0000       3.162371        86.0525 
 431   0.0000       3.188321        86.7586 
 432   0.0000       3.195351        86.9499 
 433   0.0000       3.198271        87.0294 
 434   0.0000       3.221722        87.6675 
 435   0.0000       3.246647        88.3458 
 436   0.0000       3.247036        88.3563 
 437   0.0000       3.262008        88.7638 
 438   0.0000       3.265288        88.8530 
 439   0.0000       3.268035        88.9278 
 440   0.0000       3.272021        89.0362 
 441   0.0000       3.272159        89.0400 
 442   0.0000       3.281863        89.3040 
 443   0.0000       3.283575        89.3506 
 444   0.0000       3.288547        89.4859 
 445   0.0000       3.292281        89.5875 
 446   0.0000       3.307968        90.0144 
 447   0.0000       3.310641        90.0871 
 448   0.0000       3.328002        90.5595 
 449   0.0000       3.339913        90.8837 
 450   0.0000       3.346954        91.0752 
 451   0.0000       3.361607        91.4740 
 452   0.0000       3.363612        91.5285 
 453   0.0000       3.375754        91.8589 
 454   0.0000       3.380038        91.9755 
 455   0.0000       3.390646        92.2642 
 456   0.0000       3.400447        92.5309 
 457   0.0000       3.443838        93.7116 
 458   0.0000       3.457216        94.0756 
 459   0.0000       3.504100        95.3514 
 460   0.0000       3.508078        95.4596 
 461   0.0000       3.509050        95.4861 
 462   0.0000       3.521368        95.8213 
 463   0.0000       3.525058        95.9217 
 464   0.0000       3.529069        96.0308 
 465   0.0000       3.532110        96.1136 
 466   0.0000       3.534504        96.1788 
 467   0.0000       3.535637        96.2096 
 468   0.0000       3.539593        96.3172 
 469   0.0000       3.552338        96.6640 
 470   0.0000       3.562581        96.9428 
 471   0.0000       3.569549        97.1324 
 472   0.0000       3.580108        97.4197 
 473   0.0000       3.584024        97.5262 
 474   0.0000       3.593821        97.7929 
 475   0.0000       3.596373        97.8623 
 476   0.0000       3.599819        97.9561 
 477   0.0000       3.609610        98.2225 
 478   0.0000       3.611257        98.2673 
 479   0.0000       3.616029        98.3972 
 480   0.0000       3.618998        98.4779 
 481   0.0000       3.639945        99.0479 
 482   0.0000       3.677279       100.0638 
 483   0.0000       3.684185       100.2518 
 484   0.0000       3.694997       100.5460 
 485   0.0000       3.720766       101.2472 
 486   0.0000       3.727991       101.4438 
 487   0.0000       3.756654       102.2238 
 488   0.0000       3.761681       102.3605 
 489   0.0000       3.800617       103.4200 
 490   0.0000       3.822246       104.0086 
 491   0.0000       3.839002       104.4645 
 492   0.0000       3.850234       104.7702 
 493   0.0000       3.872332       105.3715 
 494   0.0000       3.881948       105.6332 
 495   0.0000       3.888223       105.8039 
 496   0.0000       3.906841       106.3106 
 497   0.0000       3.910183       106.4015 
 498   0.0000       3.924141       106.7813 
 499   0.0000       3.929152       106.9177 
 500   0.0000       3.931854       106.9912 
 501   0.0000       3.951308       107.5206 
 502   0.0000       3.979048       108.2754 
 503   0.0000       4.014752       109.2469 
 504   0.0000       4.018710       109.3547 
 505   0.0000       4.036949       109.8510 
 506   0.0000       4.068026       110.6966 
 507   0.0000       4.084922       111.1564 
 508   0.0000       4.122665       112.1834 
 509   0.0000       4.139739       112.6480 
 510   0.0000       4.174505       113.5940 
 511   0.0000       4.187754       113.9546 
 512   0.0000       4.190279       114.0233 
 513   0.0000       4.193570       114.1128 
 514   0.0000       4.196374       114.1891 
 515   0.0000       4.197917       114.2311 
 516   0.0000       4.203280       114.3771 
 517   0.0000       4.208716       114.5250 
 518   0.0000       4.226397       115.0061 
 519   0.0000       4.227267       115.0298 
 520   0.0000       4.238849       115.3450 
 521   0.0000       4.241278       115.4111 
 522   0.0000       4.249804       115.6430 
 523   0.0000       4.253340       115.7393 
 524   0.0000       4.266403       116.0947 
 525   0.0000       4.271904       116.2444 
 526   0.0000       4.284705       116.5928 
 527   0.0000       4.290524       116.7511 
 528   0.0000       4.298679       116.9730 
 529   0.0000       4.322843       117.6305 
 530   0.0000       4.381539       119.2277 
 531   0.0000       4.391582       119.5010 
 532   0.0000       4.397300       119.6566 
 533   0.0000       4.400692       119.7489 
 534   0.0000       4.409917       119.9999 
 535   0.0000       4.414794       120.1327 
 536   0.0000       4.423800       120.3777 
 537   0.0000       4.428382       120.5024 
 538   0.0000       4.448716       121.0557 
 539   0.0000       4.467456       121.5657 
 540   0.0000       4.503568       122.5483 
 541   0.0000       4.549430       123.7963 
 542   0.0000       4.592151       124.9588 
 543   0.0000       4.595100       125.0390 
 544   0.0000       4.651810       126.5822 
 545   0.0000       4.653673       126.6329 
 546   0.0000       4.766736       129.7095 
 547   0.0000       4.771603       129.8419 
 548   0.0000       4.778106       130.0189 
 549   0.0000       4.788338       130.2973 
 550   0.0000       4.794189       130.4565 
 551   0.0000       4.805419       130.7621 
 552   0.0000       4.900232       133.3421 
 553   0.0000       4.909243       133.5873 
 554   0.0000       4.913637       133.7069 
 555   0.0000       4.926701       134.0623 
 556   0.0000       4.933159       134.2381 
 557   0.0000       4.952769       134.7717 
 558   0.0000       4.970364       135.2505 
 559   0.0000       4.973653       135.3400 
 560   0.0000       4.984442       135.6336 
 561   0.0000       5.059206       137.6680 
 562   0.0000       5.061675       137.7352 
 563   0.0000       5.141539       139.9084 
 564   0.0000       5.160680       140.4293 
 565   0.0000       5.268986       143.3764 
 566   0.0000       5.311859       144.5430 
 567   0.0000       5.339950       145.3074 
 568   0.0000       5.421206       147.5185 
 569   0.0000       5.432383       147.8227 
 570   0.0000       5.445964       148.1922 
 571   0.0000       5.461853       148.6246 
 572   0.0000       5.482540       149.1875 
 573   0.0000       5.500617       149.6794 
 574   0.0000       5.592824       152.1885 
 575   0.0000       5.601068       152.4128 
 576   0.0000       5.614686       152.7834 
 577   0.0000       5.670540       154.3032 
 578   0.0000       5.689533       154.8201 
 579   0.0000       5.909117       160.7952 
 580   0.0000       5.932707       161.4372 
 581   0.0000       6.568947       178.7501 
 582   0.0000       6.583640       179.1500 
 583   0.0000       6.590609       179.3396 
 584   0.0000       6.603419       179.6882 
 585   0.0000       6.664915       181.3616 
 586   0.0000       6.731931       183.1852 
 587   0.0000       6.760792       183.9705 
 588   0.0000       6.931059       188.6037 
 589   0.0000       6.931676       188.6205 
 590   0.0000       6.936166       188.7427 
 591   0.0000       6.936734       188.7581 
 592   0.0000       6.939708       188.8390 
 593   0.0000       6.939952       188.8457 
 594   0.0000       6.940794       188.8686 
 595   0.0000       6.941712       188.8936 
 596   0.0000       6.942347       188.9109 
 597   0.0000       6.944867       188.9794 
 598   0.0000       6.948415       189.0760 
 599   0.0000       6.948966       189.0910 
 600   0.0000       6.951126       189.1498 
 601   0.0000       6.952474       189.1864 
 602   0.0000       6.953007       189.2009 
 603   0.0000       6.954017       189.2284 
 604   0.0000       6.956908       189.3071 
 605   0.0000       6.957797       189.3313 
 606   0.0000       6.961145       189.4224 
 607   0.0000       6.963753       189.4934 
 608   0.0000       6.987543       190.1407 
 609   0.0000       6.987983       190.1527 
 610   0.0000       7.007942       190.6958 
 611   0.0000       7.008513       190.7113 
 612   0.0000       7.023463       191.1181 
 613   0.0000       7.026474       191.2001 
 614   0.0000       7.037468       191.4992 
 615   0.0000       7.037699       191.5055 
 616   0.0000       7.068618       192.3469 
 617   0.0000       7.069878       192.3812 
 618   0.0000       7.082771       192.7320 
 619   0.0000       7.085728       192.8125 
 620   0.0000       7.115911       193.6338 
 621   0.0000       7.116594       193.6524 
 622   0.0000       7.119928       193.7431 
 623   0.0000       7.124540       193.8686 
 624   0.0000       7.161002       194.8608 
 625   0.0000       7.168343       195.0605 
 626   0.0000       7.199569       195.9102 
 627   0.0000       7.200218       195.9279 
 628   0.0000       7.222300       196.5288 
 629   0.0000       7.223241       196.5544 
 630   0.0000       7.246693       197.1925 
 631   0.0000       7.253983       197.3909 
 632   0.0000       7.280997       198.1260 
 633   0.0000       7.281672       198.1444 
 634   0.0000       7.310226       198.9214 
 635   0.0000       7.310975       198.9418 
 636   0.0000       7.320289       199.1952 
 637   0.0000       7.320942       199.2130 
 638   0.0000       7.333330       199.5501 
 639   0.0000       7.334324       199.5771 
 640   0.0000       7.381235       200.8536 
 641   0.0000       7.382243       200.8811 
 642   0.0000       7.430249       202.1874 
 643   0.0000       7.431067       202.2096 
 644   0.0000       7.442822       202.5295 
 645   0.0000       7.443943       202.5600 
 646   0.0000       7.476080       203.4345 
 647   0.0000       7.478935       203.5122 
 648   0.0000       7.524382       204.7488 
 649   0.0000       7.527681       204.8386 
 650   0.0000       7.615927       207.2399 
 651   0.0000       7.619195       207.3288 
 652   0.0000       7.673906       208.8176 
 653   0.0000       7.676979       208.9012 
 654   0.0000       7.732460       210.4109 
 655   0.0000       7.736333       210.5163 
 656   0.0000       8.009721       217.9556 
 657   0.0000       8.013695       218.0637 
 658   0.0000       8.366743       227.6706 
 659   0.0000       8.367593       227.6938 
 660   0.0000       8.386520       228.2088 
 661   0.0000       8.388412       228.2603 
 662   0.0000       8.404870       228.7081 
 663   0.0000       8.407204       228.7717 
 664   0.0000       8.424509       229.2425 
 665   0.0000       8.427610       229.3269 
 666   0.0000       8.472215       230.5407 
 667   0.0000       8.473432       230.5738 
 668   0.0000       8.475043       230.6177 
 669   0.0000       8.481572       230.7953 
 670   0.0000       8.581362       233.5107 
 671   0.0000       8.584640       233.5999 
 672   0.0000       8.603624       234.1165 
 673   0.0000       8.605234       234.1603 
 674   0.0000       8.621285       234.5971 
 675   0.0000       8.635028       234.9711 
 676   0.0000       8.739605       237.8167 
 677   0.0000       8.741000       237.8547 
 678   0.0000       8.767071       238.5641 
 679   0.0000       8.773773       238.7465 
 680   0.0000       8.775479       238.7929 
 681   0.0000       8.781380       238.9535 
 682   0.0000       8.808482       239.6910 
 683   0.0000       8.810302       239.7405 
 684   0.0000       8.834967       240.4117 
 685   0.0000       8.835945       240.4383 
 686   0.0000       8.848469       240.7791 
 687   0.0000       8.850899       240.8452 
 688   0.0000       8.905517       242.3314 
 689   0.0000       8.906933       242.3700 
 690   0.0000       8.936187       243.1660 
 691   0.0000       8.940576       243.2854 
 692   0.0000       8.974046       244.1962 
 693   0.0000       8.984174       244.4718 
 694   0.0000       9.009796       245.1690 
 695   0.0000       9.014226       245.2896 
 696   0.0000       9.055941       246.4247 
 697   0.0000       9.062535       246.6041 
 698   0.0000       9.066606       246.7149 
 699   0.0000       9.099333       247.6054 
 700   0.0000       9.123050       248.2508 
 701   0.0000       9.129244       248.4194 
 702   0.0000       9.139912       248.7097 
 703   0.0000       9.140296       248.7201 
 704   0.0000       9.187703       250.0101 
 705   0.0000       9.211523       250.6583 
 706   0.0000       9.334962       254.0172 
 707   0.0000       9.366021       254.8624 
 708   0.0000      22.117653       601.8519 
 709   0.0000      22.123229       602.0037 
 710   0.0000      22.774678       619.7305 
 711   0.0000      22.796921       620.3358 
 712   0.0000      22.828992       621.2084 
 713   0.0000      22.845053       621.6455 
 714   0.0000      22.910271       623.4202 
 715   0.0000      22.926001       623.8482 
 716   0.0000      22.961731       624.8205 
 717   0.0000      22.970194       625.0508 
 718   0.0000      23.454008       638.2160 
 719   0.0000      23.468247       638.6035 
 720   0.0000      57.096379      1553.6715 
 721   0.0000      57.137357      1554.7865 
 722   0.0000      57.347407      1560.5023 
 723   0.0000      57.357110      1560.7663 
 724   0.0000      57.390839      1561.6841 
 725   0.0000      57.426228      1562.6471 
 726   0.0000      57.478330      1564.0649 
 727   0.0000      57.517211      1565.1229 
 728   0.0000      57.566775      1566.4716 
 729   0.0000      57.607008      1567.5664 

                    ********************************
                    * MULLIKEN POPULATION ANALYSIS *
                    ********************************

-----------------------
MULLIKEN ATOMIC CHARGES
-----------------------
   0 C :    0.169450
   1 C :    0.198856
   2 C :    0.177711
   3 C :   -0.104429
   4 C :    0.143066
   5 C :    0.199075
   6 Zn:    0.343155
   7 C :   -0.109813
   8 C :    0.203983
   9 C :    0.168923
  10 C :    0.199120
  11 C :    0.150930
  12 C :    0.173192
  13 F :   -0.188316
  14 F :   -0.187857
  15 F :   -0.181240
  16 F :   -0.190444
  17 F :   -0.207701
  18 F :   -0.209704
  19 F :   -0.190833
  20 F :   -0.180527
  21 F :   -0.188672
  22 F :   -0.187926
Sum of atomic charges:   -0.0000000

--------------------------------
MULLIKEN REDUCED ORBITAL CHARGES
--------------------------------
  0 C s       :     3.101997  s :     3.101997
      pz      :     1.030339  p :     2.537239
      px      :     0.631559
      py      :     0.875340
      dz2     :     0.009604  d :     0.173780
      dxz     :     0.045925
      dyz     :     0.022995
[...]

NOTE: You can disable this warning by setting the MCA parameter
btl_base_warn_component_unused to 0.
--------------------------------------------------------------------------


           ************************************************************
           *        Program running with 4 parallel MPI-processes     *
           *              working on a common directory               *
           ************************************************************
------------------------------------------------------------------------------
                         ORCA SCF GRADIENT CALCULATION
------------------------------------------------------------------------------

[compute-1-6.local:55835] 3 more processes have sent help message help-mpi-btl-base.txt / btl:no-nics
[compute-1-6.local:55835] Set MCA parameter "orte_base_help_aggregate" to 0 to see all help / error messages
Gradient of the Kohn-Sham DFT energy:
Kohn-Sham wavefunction type      ... RKS
Hartree-Fock exchange scaling    ...    0.196
Number of operators              ...    1
Number of atoms                  ...   23
Basis set dimensions             ...  730
Integral neglect threshold       ... 2.5e-11
Integral primitive cutoff        ... 2.5e-12

Nuclear repulsion gradient       ... done
One Electron Gradient            ... done
Pre-screening matrix             ... done
Starting the two electron gradient:
Two electron gradient done
Exchange-correlation gradient    ... done
Dispersion correction            ... done

------------------
CARTESIAN GRADIENT
------------------

   1   C   :   -0.000312397    0.000124205    0.000289469
   2   C   :   -0.000223540   -0.000222222    0.000354267
   3   C   :    0.000075727   -0.000132763   -0.000067992
   4   C   :    0.000314237    0.000164075   -0.000500016
   5   C   :   -0.000503742    0.000132735    0.000303181
   6   C   :    0.000390197   -0.000106738   -0.000194395
   7   Zn  :   -0.000247333   -0.000544260   -0.000231410
   8   C   :    0.000731957    0.000153112    0.000490977
   9   C   :   -0.000974487    0.001201283   -0.000772876
  10   C   :   -0.000594777   -0.001220791   -0.001103873
  11   C   :   -0.000151069   -0.000921466    0.000028802
  12   C   :   -0.000311923    0.001898677    0.000765503
  13   C   :    0.000349771   -0.000548300   -0.000041469
  14   F   :    0.000234336    0.000055886   -0.000200611
  15   F   :   -0.000095153    0.000039816   -0.000187800
  16   F   :    0.000013722   -0.000090662   -0.000050409
  17   F   :    0.000177364    0.000288395   -0.000116478
  18   F   :   -0.000190871   -0.000168054    0.000172315
  19   F   :    0.000413694    0.000226428    0.000203464
  20   F   :   -0.000283892   -0.001165577   -0.000649173
  21   F   :    0.000131260    0.000706979    0.000237905
  22   F   :    0.000623778    0.000487600    0.000696509
  23   F   :    0.000433141   -0.000358356    0.000574111

Difference to translation invariance:
           :   -0.0000000001   -0.0000000002    0.0000000000

Norm of the cartesian gradient     ...    0.0043672652
RMS gradient                       ...    0.0005257569
MAX gradient                       ...    0.0018986765

-------
TIMINGS
-------

Total SCF gradient time            ...     1393.819 sec

One electron gradient       ....       1.427 sec  (  0.1%)
Prescreening matrices       ....       1.451 sec  (  0.1%)
Two electron gradient       ....    1368.490 sec  ( 98.2%)
XC gradient                 ....      14.063 sec  (  1.0%)
CPCM gradient               ....       7.150 sec  (  0.5%)
   A-Matrix (El+Nuc)        ....       0.050 sec  (  0.0%)
   Potential                ....       7.100 sec  (  0.5%)
------------------------------------------------------------------------------
                         ORCA GEOMETRY RELAXATION STEP
------------------------------------------------------------------------------

Reading the OPT-File                    .... done
Getting information on internals        .... done
Copying old internal coords+grads       .... done
Making the new internal coordinates     .... (new redundants).... done
Validating the new internal coordinates .... (new redundants).... done
Calculating the B-matrix                .... done
Calculating the G,G- and P matrices     .... done
Transforming gradient to internals      .... done
Projecting the internal gradient        .... done
Number of atoms                         ....  23
Number of internal coordinates          .... 114
Current Energy                          .... -3235.312846211 Eh
Current gradient norm                   ....     0.004367265 Eh/bohr
Maximum allowed component of the step   ....  0.300
Current trust radius                    ....  0.300
Updating the Hessian (BFGS)             .... done
Forming the augmented Hessian           .... done
Diagonalizing the augmented Hessian     .... done
Last element of RFO vector              ....  0.001935582
Lowest eigenvalues of augmented Hessian:
 -0.444037771 -0.000012062  0.007574390  0.019404504  0.025496939
Warning: RFO finds a terribly low value for the scaling factor
Trying a QUASI-NEWTON step instead
Doing a quasi-Newton Step:
Inverting the Hessian                   .... done
Computing the step                      .... done
Length of the computed step             ....  0.010170992
Converting the step to cartesian space:
 Initial RMS(Int)=    0.0009526007
Transforming coordinates:
 Iter   0:  RMS(Cart)=    0.0039826719 RMS(Int)=    0.8321414275
 Iter   1:  RMS(Cart)=    0.0003200436 RMS(Int)=    0.0000897988
 Iter   2:  RMS(Cart)=    0.0001592826 RMS(Int)=    0.0000444609
 Iter   3:  RMS(Cart)=    0.0000788983 RMS(Int)=    0.0000220178
 Iter   4:  RMS(Cart)=    0.0000390732 RMS(Int)=    0.0000109029
 Iter   5:  RMS(Cart)=    0.0000193489 RMS(Int)=    0.0000053988
 Iter   6:  RMS(Cart)=    0.0000095811 RMS(Int)=    0.0000026733
 Iter   7:  RMS(Cart)=    0.0000047442 RMS(Int)=    0.0000013237
 Iter   8:  RMS(Cart)=    0.0000023492 RMS(Int)=    0.0000006554
 Iter   9:  RMS(Cart)=    0.0000011632 RMS(Int)=    0.0000003245
 Iter  10:  RMS(Cart)=    0.0000005760 RMS(Int)=    0.0000001607
 Iter  11:  RMS(Cart)=    0.0000002852 RMS(Int)=    0.0000000796
 Iter  12:  RMS(Cart)=    0.0000001412 RMS(Int)=    0.0000000394
 Iter  13:  RMS(Cart)=    0.0000000699 RMS(Int)=    0.0000000195
done
Storing new coordinates                 .... done

                                .--------------------.
          ----------------------|Geometry convergence|-------------------------
          Item                value                   Tolerance       Converged
          ---------------------------------------------------------------------
          Energy change      -0.0000056581            0.0000050000      NO
          RMS gradient        0.0004100983            0.0001000000      NO
          MAX gradient        0.0018696812            0.0003000000      NO
          RMS step            0.0009526007            0.0020000000      YES
          MAX step            0.0039584091            0.0040000000      YES
          ........................................................
          Max(Bonds)      0.0011      Max(Angles)    0.21
          Max(Dihed)        0.23      Max(Improp)    0.00
          ---------------------------------------------------------------------

The optimization has not yet converged - more geometry cycles are needed


    ---------------------------------------------------------------------------
                         Redundant Internal Coordinates
                            (Angstroem and degrees)

        Definition                    Value    dE/dq     Step     New-Value
    ----------------------------------------------------------------------------
     1. B(C   1,C   0)                1.3828  0.000137 -0.0001    1.3828   
     2. B(C   2,C   0)                1.3846 -0.000007  0.0001    1.3847   
     3. B(C   3,C   1)                1.3810  0.000308  0.0000    1.3810   
     4. B(C   4,C   2)                1.3843 -0.000173  0.0002    1.3845   
     5. B(C   5,C   4)                1.3831  0.000272 -0.0003    1.3829   
     6. B(C   5,C   3)                1.3802 -0.000055  0.0002    1.3804   
     7. B(Zn  6,C   3)                1.9316  0.000055  0.0002    1.9318   
     8. B(C   7,Zn  6)                1.9297 -0.000527  0.0005    1.9302   
     9. B(C   8,C   7)                1.3807  0.000334 -0.0002    1.3805   
    10. B(C   9,C   8)                1.3835  0.000242 -0.0005    1.3830   
    11. B(C  10,C   7)                1.3810  0.000502  0.0006    1.3815   
    12. B(C  11,C  10)                1.3817 -0.000375  0.0006    1.3823   
    13. B(C  12,C  11)                1.3848 -0.000150  0.0002    1.3849   
    14. B(C  12,C   9)                1.3838 -0.000229  0.0000    1.3839   
    15. B(F  13,C   0)                1.3295 -0.000255  0.0002    1.3297   
    16. B(F  14,C   1)                1.3424 -0.000115  0.0002    1.3425   
    17. B(F  15,C   2)                1.3257 -0.000098  0.0001    1.3258   
    18. B(F  16,C   4)                1.3303  0.000338 -0.0002    1.3301   
    19. B(F  17,C   5)                1.3422 -0.000169  0.0001    1.3423   
    20. B(F  18,C  10)                1.3424  0.000469 -0.0006    1.3418   
    21. B(F  19,C  11)                1.3305  0.000244 -0.0005    1.3300   
    22. B(F  20,C  12)                1.3250 -0.000741  0.0005    1.3254   
    23. B(F  21,C   9)                1.3284 -0.001048  0.0011    1.3295   
    24. B(F  22,C   8)                1.3421 -0.000784  0.0009    1.3430   
    25. A(C   2,C   0,F  13)          119.73 -0.000167    0.01    119.75   
    26. A(C   1,C   0,C   2)          118.80 -0.000087    0.02    118.81   
    27. A(C   1,C   0,F  13)          121.47  0.000254   -0.03    121.44   
    28. A(C   0,C   1,F  14)          117.58  0.000121    0.01    117.59   
    29. A(C   3,C   1,F  14)          119.51  0.000003    0.00    119.51   
    30. A(C   0,C   1,C   3)          122.91 -0.000124   -0.01    122.90   
    31. A(C   0,C   2,F  15)          119.93 -0.000051    0.00    119.93   
    32. A(C   4,C   2,F  15)          119.90 -0.000164    0.00    119.91   
    33. A(C   0,C   2,C   4)          120.16  0.000215   -0.00    120.16   
    34. A(C   1,C   3,Zn  6)          121.69 -0.000226    0.06    121.76   
    35. A(C   1,C   3,C   5)          116.41  0.000146   -0.01    116.39   
    36. A(C   5,C   3,Zn  6)          121.90  0.000080   -0.06    121.84   
    37. A(C   2,C   4,F  16)          119.74 -0.000114    0.01    119.75   
    38. A(C   2,C   4,C   5)          118.84 -0.000014   -0.02    118.82   
    39. A(C   5,C   4,F  16)          121.42  0.000127    0.02    121.44   
    40. A(C   4,C   5,F  17)          117.62  0.000377   -0.06    117.57   
    41. A(C   3,C   5,F  17)          119.50 -0.000241    0.03    119.52   
    42. A(C   3,C   5,C   4)          122.88 -0.000137    0.03    122.91   
    43. L(C   3,Zn  6,C   7,C  10, 2) 179.56  0.000015    0.21    179.78   
    44. L(C   3,Zn  6,C   7,C  10, 1) 181.34  0.000997    0.02    181.35   
    45. A(C   8,C   7,C  10)          116.50  0.000428   -0.05    116.44   
    46. A(Zn  6,C   7,C  10)          123.31  0.001420   -0.04    123.28   
    47. A(Zn  6,C   7,C   8)          120.19 -0.001848    0.09    120.28   
    48. A(C   7,C   8,C   9)          123.00 -0.000083    0.03    123.02   
    49. A(C   9,C   8,F  22)          117.57  0.000251   -0.02    117.55   
    50. A(C   7,C   8,F  22)          119.44 -0.000168   -0.01    119.43   
    51. A(C  12,C   9,F  21)          119.96  0.000372   -0.03    119.93   
    52. A(C   8,C   9,F  21)          121.43  0.000099   -0.02    121.41   
    53. A(C   8,C   9,C  12)          118.61 -0.000471    0.05    118.66   
    54. A(C   7,C  10,C  11)          122.67 -0.000729    0.03    122.70   
    55. A(C  11,C  10,F  18)          117.65  0.000429   -0.06    117.59   
    56. A(C   7,C  10,F  18)          119.68  0.000300    0.03    119.71   
    57. A(C  10,C  11,F  19)          121.77  0.001491    0.02    121.79   
    58. A(C  10,C  11,C  12)          118.99  0.000378   -0.03    118.96   
    59. A(C  12,C  11,F  19)          119.23 -0.001870    0.01    119.24   
    60. A(C   9,C  12,C  11)          120.23  0.000478   -0.02    120.21   
    61. A(C  11,C  12,F  20)          119.81 -0.000436    0.06    119.87   
    62. A(C   9,C  12,F  20)          119.96 -0.000042   -0.04    119.92   
    63. D(F  14,C   1,C   0,F  13)      0.25  0.000121    0.02      0.27   
    64. D(C   3,C   1,C   0,F  13)   -179.81  0.000058    0.03   -179.77   
    65. D(C   3,C   1,C   0,C   2)      0.12  0.000025   -0.05      0.08   
    66. D(F  14,C   1,C   0,C   2)   -179.83  0.000088   -0.05   -179.88   
    67. D(C   4,C   2,C   0,C   1)      0.07 -0.000015    0.02      0.08   
    68. D(F  15,C   2,C   0,C   1)    179.99 -0.000011    0.03    180.02   
    69. D(F  15,C   2,C   0,F  13)     -0.08 -0.000043   -0.05     -0.13   
    70. D(C   4,C   2,C   0,F  13)    179.99 -0.000047   -0.06    179.94   
    71. D(Zn  6,C   3,C   1,F  14)      0.19 -0.000101    0.02      0.21   
    72. D(Zn  6,C   3,C   1,C   0)   -179.76 -0.000037    0.01   -179.75   
    73. D(C   5,C   3,C   1,C   0)     -0.12  0.000032    0.03     -0.09   
    74. D(C   5,C   3,C   1,F  14)    179.83 -0.000032    0.03    179.86   
    75. D(F  16,C   4,C   2,C   0)    179.90  0.000029   -0.01    179.89   
    76. D(C   5,C   4,C   2,F  15)    179.83 -0.000056    0.02    179.85   
    77. D(C   5,C   4,C   2,C   0)     -0.24 -0.000053    0.02     -0.22   
    78. D(F  16,C   4,C   2,F  15)     -0.02  0.000025   -0.02     -0.04   
    79. D(F  17,C   5,C   4,F  16)     -0.10 -0.000094   -0.01     -0.12   
    80. D(C   3,C   5,C   4,F  16)   -179.90  0.000032   -0.00   -179.90   
    81. D(C   3,C   5,C   4,C   2)      0.25  0.000115   -0.04      0.21   
    82. D(F  17,C   5,C   3,Zn  6)     -0.22  0.000091    0.02     -0.20   
    83. D(F  17,C   5,C   3,C   1)   -179.86  0.000024    0.03   -179.83   
    84. D(F  17,C   5,C   4,C   2)   -179.95 -0.000011   -0.05   -180.01   
    85. D(C   4,C   5,C   3,Zn  6)    179.57 -0.000035    0.01    179.57   
    86. D(C   4,C   5,C   3,C   1)     -0.07 -0.000103    0.02     -0.05   
    87. D(C  10,C   7,C   3,C   5)    110.31  0.000259    0.12    110.43   
    88. D(C  10,C   7,C   3,C   1)    -70.88 -0.000244    0.14    -70.75   
    89. D(C   8,C   7,C   3,C   5)    -70.16  0.000239    0.21    -69.95   
    90. D(C   8,C   7,C   3,C   1)    108.65 -0.000264    0.23    108.88   
    91. D(F  22,C   8,C   7,Zn  6)      0.13 -0.000058    0.05      0.18   
    92. D(C   9,C   8,C   7,C  10)     -0.29 -0.000127   -0.02     -0.31   
    93. D(C   9,C   8,C   7,Zn  6)   -179.95 -0.000103   -0.05   -179.99   
    94. D(F  22,C   8,C   7,C  10)    179.78 -0.000082    0.08    179.86   
    95. D(F  21,C   9,C   8,F  22)      0.14  0.000059   -0.05      0.09   
    96. D(F  21,C   9,C   8,C   7)   -179.79  0.000104    0.05   -179.74   
    97. D(C  12,C   9,C   8,F  22)   -179.72  0.000059   -0.11   -179.83   
    98. D(C  12,C   9,C   8,C   7)      0.35  0.000104   -0.01      0.34   
    99. D(F  18,C  10,C   7,C   8)    179.76 -0.000105    0.03    179.78   
   100. D(F  18,C  10,C   7,Zn  6)     -0.60 -0.000143    0.05     -0.55   
   101. D(C  11,C  10,C   7,C   8)     -0.06  0.000017    0.04     -0.03   
   102. D(C  11,C  10,C   7,Zn  6)    179.58 -0.000020    0.06    179.64   
   103. D(F  19,C  11,C  10,F  18)      0.20  0.000040    0.01      0.21   
   104. D(F  19,C  11,C  10,C   7)   -179.98 -0.000080    0.00   -179.98   
   105. D(C  12,C  11,C  10,F  18)   -179.48  0.000231   -0.01   -179.49   
   106. D(C  12,C  11,C  10,C   7)      0.34  0.000111   -0.02      0.32   
   107. D(F  20,C  12,C  11,F  19)      0.08  0.000063   -0.06      0.03   
   108. D(F  20,C  12,C  11,C  10)    179.77 -0.000113   -0.03    179.74   
   109. D(C   9,C  12,C  11,F  19)   -179.97  0.000040   -0.03   -180.00   
   110. D(C   9,C  12,C  11,C  10)     -0.28 -0.000136   -0.01     -0.29   
   111. D(F  20,C  12,C   9,F  21)      0.04  0.000008   -0.01      0.03   
   112. D(F  20,C  12,C   9,C   8)    179.90  0.000007    0.05    179.95   
   113. D(C  11,C  12,C   9,F  21)   -179.91  0.000031   -0.03   -179.95   
   114. D(C  11,C  12,C   9,C   8)     -0.05  0.000030    0.02     -0.03   
    ----------------------------------------------------------------------------




    ----------------------------------------------------------------------------
                                  WARNING !!!
       The optimization did not converge but reached the maximum number of
       optimization cycles.
       Please check your results very carefully.
    ----------------------------------------------------------------------------



                            ***************************************
                            *     ORCA property calculations      *
                            ***************************************

                                    ---------------------
                                    Active property flags
                                    ---------------------
   (+) Dipole Moment


------------------------------------------------------------------------------
                       ORCA ELECTRIC PROPERTIES CALCULATION
------------------------------------------------------------------------------

Dipole Moment Calculation                       ... on
Quadrupole Moment Calculation                   ... off
Polarizability Calculation                      ... off
GBWName                                         ... ZnC6F52.gbw
Electron density file                           ... ZnC6F52.scfp
The origin for moment calculation is the CENTER OF MASS  = (-1.545262,  2.746211  0.665084)

-------------
DIPOLE MOMENT
-------------
                                X             Y             Z
Electronic contribution:      0.11617      -0.03397       0.11614
Nuclear contribution   :     -0.09380       0.01861      -0.08443
                        -----------------------------------------
Total Dipole Moment    :      0.02237      -0.01536       0.03171
                        -----------------------------------------
Magnitude (a.u.)       :      0.04174
Magnitude (Debye)      :      0.10609



--------------------
Rotational spectrum 
--------------------
 
Rotational constants in cm-1:     0.017302     0.003086     0.002910 
Rotational constants in MHz :   518.688510    92.507269    87.253088 

 Dipole components along the rotational axes: 
x,y,z [a.u.] :    -0.009813     0.035964    -0.018770 
x,y,z [Debye]:    -0.024943     0.091413    -0.047709 

 
--------------------------------------------------------------------------
[[35379,1],0]: A high-performance Open MPI point-to-point messaging module
was unable to find any relevant network interfaces:

Module: OpenFabrics (openib)
  Host: compute-1-6

Another transport will be used instead, although this may result in
lower performance.

NOTE: You can disable this warning by setting the MCA parameter
btl_base_warn_component_unused to 0.
--------------------------------------------------------------------------
[compute-1-6.local:57014] 3 more processes have sent help message help-mpi-btl-base.txt / btl:no-nics
[compute-1-6.local:57014] Set MCA parameter "orte_base_help_aggregate" to 0 to see all help / error messages

Timings for individual modules:

Sum of individual times         ...   238414.858 sec (=3973.581 min)
GTO integral calculation        ...      361.434 sec (=   6.024 min)   0.2 %
SCF iterations                  ...   155496.283 sec (=2591.605 min)  65.2 %
SCF Gradient evaluation         ...    82534.055 sec (=1375.568 min)  34.6 %
Geometry relaxation             ...       23.087 sec (=   0.385 min)   0.0 %
                             ****ORCA TERMINATED NORMALLY****
TOTAL RUN TIME: 2 days 18 hours 13 minutes 58 seconds 559 msec
