Warning: no access to tty (Bad file descriptor).
Thus no job control in this shell.

                                 *****************
                                 * O   R   C   A *
                                 *****************

           --- An Ab Initio, DFT and Semiempirical electronic structure package ---

                  #######################################################
                  #                        -***-                        #
                  #          Department of theory and spectroscopy      #
                  #               Directorship: Frank Neese             #
                  #        Max Planck Institute fuer Kohlenforschung    #
                  #                Kaiser Wilhelm Platz 1               #
                  #                 D-45470 Muelheim/Ruhr               #
                  #                      Germany                        #
                  #                                                     #
                  #                  All rights reserved                #
                  #                        -***-                        #
                  #######################################################


                         Program Version 4.2.1 -  RELEASE  -


 With contributions from (in alphabetic order):
   Daniel Aravena         : Magnetic Suceptibility
   Michael Atanasov       : Ab Initio Ligand Field Theory (pilot matlab implementation)
   Alexander A. Auer      : GIAO ZORA, VPT2
   Ute Becker             : Parallelization
   Giovanni Bistoni       : ED, misc. LED, open-shell LED, HFLD
   Martin Brehm           : Molecular dynamics
   Dmytro Bykov           : SCF Hessian
   Vijay G. Chilkuri      : MRCI spin determinant printing, contributions to CSF-ICE
   Dipayan Datta          : RHF DLPNO-CCSD density
   Achintya Kumar Dutta   : EOM-CC, STEOM-CC
   Dmitry Ganyushin       : Spin-Orbit,Spin-Spin,Magnetic field MRCI
   Miquel Garcia          : C-PCM Hessian, Gaussian charge scheme
   Yang Guo               : DLPNO-NEVPT2, CIM, IAO-localization
   Andreas Hansen         : Spin unrestricted coupled pair/coupled cluster methods
   Benjamin Helmich-Paris : CASSCF linear response (MC-RPA)
   Lee Huntington         : MR-EOM, pCC
   Robert Izsak           : Overlap fitted RIJCOSX, COSX-SCS-MP3, EOM
   Christian Kollmar      : KDIIS, OOCD, Brueckner-CCSD(T), CCSD density
   Simone Kossmann        : Meta GGA functionals, TD-DFT gradient, OOMP2, MP2 Hessian
   Martin Krupicka        : AUTO-CI
   Lucas Lang             : DCDCAS
   Dagmar Lenk            : GEPOL surface, SMD
   Dimitrios Liakos       : Extrapolation schemes; Compound Job, initial MDCI parallelization
   Dimitrios Manganas     : Further ROCIS development; embedding schemes
   Dimitrios Pantazis     : SARC Basis sets
   Taras Petrenko         : DFT Hessian,TD-DFT gradient, ASA, ECA, R-Raman, ABS, FL, XAS/XES, NRVS
   Peter Pinski           : DLPNO-MP2, DLPNO-MP2 Gradient
   Christoph Reimann      : Effective Core Potentials
   Marius Retegan         : Local ZFS, SOC
   Christoph Riplinger    : Optimizer, TS searches, QM/MM, DLPNO-CCSD(T), (RO)-DLPNO pert. Triples
   Tobias Risthaus        : Range-separated hybrids, TD-DFT gradient, RPA, STAB
   Michael Roemelt        : Original ROCIS implementation
   Masaaki Saitow         : Open-shell DLPNO-CCSD energy and density
   Barbara Sandhoefer     : DKH picture change effects
   Avijit Sen             : IP-ROCIS
   Kantharuban Sivalingam : CASSCF convergence, NEVPT2, FIC-MRCI
   Bernardo de Souza      : ESD, SOC TD-DFT
   Georgi Stoychev        : AutoAux, RI-MP2 NMR
   Willem Van den Heuvel  : Paramagnetic NMR
   Boris Wezisla          : Elementary symmetry handling
   Frank Wennmohs         : Technical directorship


 We gratefully acknowledge several colleagues who have allowed us to
 interface, adapt or use parts of their codes:
   Stefan Grimme, W. Hujo, H. Kruse,             : VdW corrections, initial TS optimization,
                  C. Bannwarth                     DFT functionals, gCP, sTDA/sTD-DF
   Ed Valeev, F. Pavosevic, A. Kumar             : LibInt (2-el integral package), F12 methods
   Garnet Chan, S. Sharma, J. Yang, R. Olivares  : DMRG
   Ulf Ekstrom                                   : XCFun DFT Library
   Mihaly Kallay                                 : mrcc  (arbitrary order and MRCC methods)
   Andreas Klamt, Michael Diedenhofen            : otool_cosmo (COSMO solvation model)
   Jiri Pittner, Ondrej Demel                    : Mk-CCSD
   Frank Weinhold                                : gennbo (NPA and NBO analysis)
   Christopher J. Cramer and Donald G. Truhlar   : smd solvation model
   Lars Goerigk                                  : TD-DFT with DH, B97 family of functionals
   V. Asgeirsson, H. Jonsson                     : NEB implementation
   FAccTs GmbH                                   : IRC, NEB, NEB-TS, Multilevel, MM, QM/MM, CI optimization
   S Lehtola, MJT Oliveira, MAL Marques          : LibXC Library


 Your calculation uses the libint2 library for the computation of 2-el integrals
 For citations please refer to: http://libint.valeyev.net

 Your ORCA version has been built with support for libXC version: 4.2.3
 For citations please refer to: https://tddft.org/programs/libxc/

 This ORCA versions uses:
   CBLAS   interface :  Fast vector & matrix operations
   LAPACKE interface :  Fast linear algebra routines
   SCALAPACK package :  Parallel linear algebra routines


Your calculation utilizes the atom-pairwise dispersion correction
with the zero-damping scheme (D30)
Cite in your paper:
S.Grimme, J.Antony, S.Ehrlich and H.Krieg, J.Chem.Phys., 132, (2010), 154104 
   

XCFun DFT library Copyright 2009-2010 Ulf Ekstrom and contributors.
See http://admol.org/xcfun for more information. This is free soft-
ware; see the source code for copying conditions. There is ABSOLUTELY
NO WARRANTY; not even for MERCHANTABILITY or FITNESS FOR A PARTICULAR
PURPOSE. For details see the documentation. Scientific users of this 
library should cite U. Ekstrom, L. Visscher, R. Bast, A. J. Thorvald-
sen and K. Ruud; J.Chem.Theor.Comp. 2010, DOI: 10.1021/ct100117s
XCFun Version 0.99 
----- Orbital basis set information -----
Your calculation utilizes the basis: def2-TZVP
   F. Weigend and R. Ahlrichs, Phys. Chem. Chem. Phys. 7, 3297 (2005).

----- AuxJ basis set information -----
Your calculation utilizes the auxiliary basis: def2/J
   F. Weigend, Phys. Chem. Chem. Phys. 8, 1057 (2006).

================================================================================
                                        WARNINGS
                       Please study these warnings very carefully!
================================================================================


WARNING: Geometry Optimization
  ===> : Switching off AutoStart
         For restart on a previous wavefunction, please use MOREAD

INFO   : the flag for use of LIBINT has been found!

================================================================================
                                       INPUT FILE
================================================================================
NAME = DMBI-Me2.inp
|  1> # avogadro generated ORCA input file 
|  2> # Basic Mode
|  3> # 
|  4> ! wB97X-D3 OPT def2-TZVP def2/J CPCM
|  5> %cpcm
|  6>   epsilon 3
|  7> end
|  8> %pal
|  9>  nprocs 4
| 10> end
| 11> 
| 12> * xyz 0 1
| 13>    C        1.05974        2.73732        0.34529
| 14>    C        0.24559        1.47059        0.28125
| 15>    H        0.77151        3.33624        1.23230
| 16>    H        0.88783        3.33583       -0.57519
| 17>    H        2.14879        2.52513        0.40542
| 18>    C       -1.91190        2.82305        0.12976
| 19>    C       -1.17601        1.50993        0.17332
| 20>    H       -3.00833        2.67842        0.02939
| 21>    H       -1.56815        3.41321       -0.74704
| 22>    H       -1.71843        3.40048        1.05670
| 23>    C        0.91266        0.22876        0.28417
| 24>    C       -1.90453        0.30285        0.06232
| 25>    C        0.15771       -0.93927        0.14106
| 26>    H        1.99126        0.19236        0.33559
| 27>    C       -1.19994       -0.90376        0.02842
| 28>    H       -2.98075        0.31824       -0.04617
| 29>    N        0.61213       -2.26347       -0.03035
| 30>    N       -1.69275       -2.21050       -0.21338
| 31>    C       -0.52482       -3.02900       -0.54583
| 32>    C       -0.56834       -4.50092       -0.14005
| 33>    H       -0.45047       -3.04197       -1.65557
| 34>    C        2.00622       -2.66003       -0.05432
| 35>    H        2.14616       -3.59625        0.52341
| 36>    H        2.65046       -1.90425        0.43647
| 37>    H        2.33863       -2.79471       -1.10289
| 38>    C       -3.05078       -2.49364       -0.63760
| 39>    H       -3.48953       -1.62893       -1.17418
| 40>    H       -3.68052       -2.71339        0.25073
| 41>    H       -3.06825       -3.36671       -1.32205
| 42>    C        0.44325       -5.34534       -0.64372
| 43>    C       -1.61315       -6.46535        0.86374
| 44>    C        0.43070       -6.71765       -0.39647
| 45>    H        1.23897       -4.94697       -1.25811
| 46>    C       -0.59971       -7.28009        0.35278
| 47>    H        1.21427       -7.34520       -0.80267
| 48>    H       -0.61458       -8.34836        0.52863
| 49>    C       -1.60115       -5.08287        0.62451
| 50>    H       -2.41599       -6.91144        1.43631
| 51>    H       -2.40822       -4.49179        1.02606
| 52> *
| 53> 
| 54> 
| 55>                          ****END OF INPUT****
================================================================================

                       *****************************
                       * Geometry Optimization Run *
                       *****************************

Geometry optimization settings:
Update method            Update   .... BFGS
Choice of coordinates    CoordSys .... Z-matrix Internals
Initial Hessian          InHess   .... Almoef's Model

Convergence Tolerances:
Energy Change            TolE     ....  5.0000e-06 Eh
Max. Gradient            TolMAXG  ....  3.0000e-04 Eh/bohr
RMS Gradient             TolRMSG  ....  1.0000e-04 Eh/bohr
Max. Displacement        TolMAXD  ....  4.0000e-03 bohr
RMS Displacement         TolRMSD  ....  2.0000e-03 bohr
Strict Convergence                ....  False
------------------------------------------------------------------------------
                        ORCA OPTIMIZATION COORDINATE SETUP
------------------------------------------------------------------------------

The optimization will be done in new redundant internal coordinates
Making redundant internal coordinates   ...  (new redundants) done
Evaluating the initial hessian          ...  (Almloef) done
Evaluating the coordinates              ...  done
Calculating the B-matrix                .... done
Calculating the G-matrix                .... done
Diagonalizing the G-matrix              .... done
Small eigenvalue found = 6.141e-03
Small eigenvalue found = 1.458e-02
Small eigenvalue found = 2.202e-02
Small eigenvalue found = 2.961e-02
The first mode is                       ....  100
The number of degrees of freedom        ....  111

    -----------------------------------------------------------------
                    Redundant Internal Coordinates


    -----------------------------------------------------------------
         Definition                    Initial Value    Approx d2E/dq
    -----------------------------------------------------------------
      1. B(C   1,C   0)                  1.5072         0.406265   
      2. B(H   2,C   0)                  1.1084         0.336554   
      3. B(H   3,C   0)                  1.1113         0.332962   
      4. B(H   4,C   0)                  1.1112         0.333172   
      5. B(C   6,C   1)                  1.4262         0.546927   
      6. B(C   6,C   5)                  1.5059         0.408167   
      7. B(H   7,C   5)                  1.1105         0.334010   
      8. B(H   8,C   5)                  1.1114         0.332863   
      9. B(H   9,C   5)                  1.1091         0.335715   
     10. B(C  10,C   1)                  1.4097         0.581269   
     11. B(C  11,C   6)                  1.4143         0.571542   
     12. B(C  12,C  10)                  1.3981         0.606446   
     13. B(H  13,C  10)                  1.0804         0.372974   
     14. B(C  14,C  12)                  1.3628         0.690511   
     15. B(C  14,C  11)                  1.3977         0.607419   
     16. B(H  15,C  11)                  1.0818         0.371135   
     17. B(N  16,C  12)                  1.4105         0.519087   
     18. B(N  17,C  14)                  1.4174         0.506093   
     19. B(C  18,N  17)                  1.4644         0.425739   
     20. B(C  18,N  16)                  1.4644         0.425800   
     21. B(C  19,C  18)                  1.5274         0.377092   
     22. B(H  20,C  18)                  1.1123         0.331772   
     23. B(C  21,N  16)                  1.4496         0.449571   
     24. B(H  22,C  21)                  1.1090         0.335833   
     25. B(H  23,C  21)                  1.1078         0.337361   
     26. B(H  24,C  21)                  1.1082         0.336796   
     27. B(C  25,N  17)                  1.4506         0.447834   
     28. B(H  26,C  25)                  1.1082         0.336791   
     29. B(H  27,C  25)                  1.1109         0.333545   
     30. B(H  28,C  25)                  1.1095         0.335185   
     31. B(C  29,C  19)                  1.4107         0.579070   
     32. B(C  31,C  29)                  1.3945         0.614638   
     33. B(H  32,C  29)                  1.0814         0.371710   
     34. B(C  33,C  31)                  1.3926         0.618756   
     35. B(C  33,C  30)                  1.3971         0.608668   
     36. B(H  34,C  31)                  1.0830         0.369536   
     37. B(H  35,C  33)                  1.0827         0.369821   
     38. B(C  36,C  30)                  1.4031         0.595490   
     39. B(C  36,C  19)                  1.4106         0.579167   
     40. B(H  37,C  30)                  1.0823         0.370424   
     41. B(H  38,C  36)                  1.0780         0.376396   
     42. A(C   1,C   0,H   2)          110.3452         0.325187   
     43. A(H   2,C   0,H   4)          108.3455         0.284307   
     44. A(C   1,C   0,H   3)          109.5048         0.324614   
     45. A(H   2,C   0,H   3)          109.3659         0.284280   
     46. A(C   1,C   0,H   4)          111.7921         0.324647   
     47. A(H   3,C   0,H   4)          107.4142         0.283834   
     48. A(C   6,C   1,C  10)          119.7445         0.419548   
     49. A(C   0,C   1,C  10)          118.9927         0.398037   
     50. A(C   0,C   1,C   6)          121.2293         0.393806   
     51. A(H   8,C   5,H   9)          109.2040         0.284156   
     52. A(H   7,C   5,H   9)          108.3961         0.284308   
     53. A(C   6,C   5,H   9)          110.1554         0.325303   
     54. A(C   6,C   5,H   7)          111.8106         0.325031   
     55. A(C   6,C   5,H   8)          109.5545         0.324847   
     56. A(H   7,C   5,H   8)          107.6519         0.283931   
     57. A(C   1,C   6,C  11)          119.7259         0.418288   
     58. A(C   5,C   6,C  11)          119.3572         0.397184   
     59. A(C   1,C   6,C   5)          120.8857         0.394129   
     60. A(C  12,C  10,H  13)          121.0499         0.353688   
     61. A(C   1,C  10,H  13)          120.1448         0.351160   
     62. A(C   1,C  10,C  12)          118.7006         0.427368   
     63. A(C  14,C  11,H  15)          120.7552         0.353488   
     64. A(C   6,C  11,H  15)          120.5445         0.349868   
     65. A(C   6,C  11,C  14)          118.6236         0.426200   
     66. A(C  14,C  12,N  16)          109.5960         0.425852   
     67. A(C  10,C  12,N  16)          128.5218         0.416099   
     68. A(C  10,C  12,C  14)          121.6438         0.440817   
     69. A(C  12,C  14,N  17)          109.6617         0.423925   
     70. A(C  11,C  14,N  17)          128.6660         0.414345   
     71. A(C  11,C  14,C  12)          121.5141         0.440945   
     72. A(C  12,N  16,C  18)          106.4654         0.388453   
     73. A(C  18,N  16,C  21)          126.7156         0.378864   
     74. A(C  12,N  16,C  21)          124.6589         0.392157   
     75. A(C  18,N  17,C  25)          124.8297         0.378601   
     76. A(C  14,N  17,C  25)          123.7339         0.390159   
     77. A(C  14,N  17,C  18)          106.0652         0.386730   
     78. A(N  16,C  18,N  17)          104.3066         0.375313   
     79. A(C  19,C  18,H  20)          104.8159         0.320486   
     80. A(N  17,C  18,H  20)          106.6379         0.324973   
     81. A(N  16,C  18,H  20)          107.7822         0.324981   
     82. A(N  17,C  18,C  19)          117.1018         0.369859   
     83. A(N  16,C  18,C  19)          115.6180         0.369868   
     84. A(C  18,C  19,C  29)          117.4868         0.392608   
     85. A(C  29,C  19,C  36)          118.1376         0.423574   
     86. A(C  18,C  19,C  36)          124.2213         0.392619   
     87. A(H  23,C  21,H  24)          109.1278         0.284892   
     88. A(H  22,C  21,H  24)          110.6384         0.284691   
     89. A(N  16,C  21,H  24)          109.7160         0.328714   
     90. A(H  22,C  21,H  23)          105.7701         0.284765   
     91. A(N  16,C  21,H  23)          111.4282         0.328805   
     92. A(N  16,C  21,H  22)          110.1017         0.328559   
     93. A(H  27,C  25,H  28)          109.1915         0.284177   
     94. A(H  26,C  25,H  28)          108.0031         0.284605   
     95. A(N  17,C  25,H  28)          110.4095         0.328245   
     96. A(H  26,C  25,H  27)          108.4882         0.284388   
     97. A(N  17,C  25,H  27)          109.6005         0.327979   
     98. A(N  17,C  25,H  26)          111.0957         0.328504   
     99. A(C  31,C  29,H  32)          118.0283         0.354289   
    100. A(C  19,C  29,H  32)          120.6644         0.350734   
    101. A(C  19,C  29,C  31)          121.2865         0.428106   
    102. A(C  36,C  30,H  37)          120.1762         0.352189   
    103. A(C  33,C  30,H  37)          119.4193         0.353496   
    104. A(C  33,C  30,C  36)          120.4001         0.429506   
    105. A(C  33,C  31,H  34)          120.2062         0.354338   
    106. A(C  29,C  31,H  34)          119.8185         0.353937   
    107. A(C  29,C  31,C  33)          119.9670         0.433232   
    108. A(C  30,C  33,H  35)          120.3977         0.353399   
    109. A(C  30,C  33,C  31)          119.8643         0.432472   
    110. A(C  31,C  33,H  35)          119.7359         0.354384   
    111. A(C  30,C  36,H  38)          118.0582         0.353144   
    112. A(C  19,C  36,H  38)          121.5913         0.351487   
    113. A(C  19,C  36,C  30)          120.3420         0.425698   
    114. D(C   6,C   1,C   0,H   3)    -59.8510         0.012233   
    115. D(C  10,C   1,C   0,H   2)   -121.5313         0.012233   
    116. D(C   6,C   1,C   0,H   4)   -178.7685         0.012233   
    117. D(C  10,C   1,C   0,H   3)    118.0351         0.012233   
    118. D(C   6,C   1,C   0,H   2)     60.5825         0.012233   
    119. D(C  10,C   1,C   0,H   4)     -0.8824         0.012233   
    120. D(C   1,C   6,C   5,H   9)    -60.2611         0.012343   
    121. D(C  11,C   6,C   5,H   8)   -118.0751         0.012343   
    122. D(C  11,C   6,C   5,H   9)    121.7787         0.012343   
    123. D(C   5,C   6,C   1,C   0)     -0.4454         0.020455   
    124. D(C  11,C   6,C   1,C   0)    177.5073         0.020455   
    125. D(C   1,C   6,C   5,H   8)     59.8850         0.012343   
    126. D(C  11,C   6,C   5,H   7)      1.1831         0.012343   
    127. D(C   5,C   6,C   1,C  10)   -178.3159         0.020455   
    128. D(C   1,C   6,C   5,H   7)    179.1432         0.012343   
    129. D(C  11,C   6,C   1,C  10)     -0.3632         0.020455   
    130. D(H  13,C  10,C   1,C   6)    178.1538         0.023218   
    131. D(H  13,C  10,C   1,C   0)      0.2356         0.023218   
    132. D(C  12,C  10,C   1,C   0)   -176.0833         0.023218   
    133. D(C  12,C  10,C   1,C   6)      1.8349         0.023218   
    134. D(C  14,C  11,C   6,C   5)    176.4246         0.022413   
    135. D(H  15,C  11,C   6,C   5)     -0.4152         0.022413   
    136. D(H  15,C  11,C   6,C   1)   -178.3993         0.022413   
    137. D(C  14,C  11,C   6,C   1)     -1.5596         0.022413   
    138. D(N  16,C  12,C  10,H  13)     -3.9077         0.025384   
    139. D(C  14,C  12,C  10,C   1)     -1.4066         0.025384   
    140. D(C  14,C  12,C  10,H  13)   -177.6909         0.025384   
    141. D(N  16,C  12,C  10,C   1)    172.3766         0.025384   
    142. D(C  12,C  14,C  11,H  15)    178.8851         0.025470   
    143. D(C  12,C  14,C  11,C   6)      2.0523         0.025470   
    144. D(N  17,C  14,C  11,C   6)   -172.8833         0.025470   
    145. D(N  17,C  14,C  12,N  16)      0.3955         0.033505   
    146. D(N  17,C  14,C  12,C  10)    175.2358         0.033505   
    147. D(C  11,C  14,C  12,N  16)   -175.4071         0.033505   
    148. D(C  11,C  14,C  12,C  10)     -0.5668         0.033505   
    149. D(N  17,C  14,C  11,H  15)      3.9495         0.025470   
    150. D(C  21,N  16,C  12,C  14)    176.1082         0.021360   
    151. D(C  21,N  16,C  12,C  10)      1.7240         0.021360   
    152. D(C  18,N  16,C  12,C  14)     11.9046         0.021360   
    153. D(C  18,N  16,C  12,C  10)   -162.4795         0.021360   
    154. D(C  25,N  17,C  14,C  12)   -167.5988         0.020265   
    155. D(C  25,N  17,C  14,C  11)      7.8175         0.020265   
    156. D(C  18,N  17,C  14,C  12)    -12.5065         0.020265   
    157. D(C  18,N  17,C  14,C  11)    162.9098         0.020265   
    158. D(H  20,C  18,N  17,C  25)     59.8529         0.015454   
    159. D(C  19,C  18,N  17,C  25)    -57.0667         0.015454   
    160. D(C  19,C  18,N  17,C  14)    148.1906         0.015454   
    161. D(N  16,C  18,N  17,C  25)    173.7537         0.015454   
    162. D(N  16,C  18,N  17,C  14)     19.0110         0.015454   
    163. D(H  20,C  18,N  16,C  21)    -69.5614         0.015458   
    164. D(H  20,C  18,N  16,C  12)     94.2183         0.015458   
    165. D(C  19,C  18,N  16,C  21)     47.2856         0.015458   
    166. D(C  19,C  18,N  16,C  12)   -148.9348         0.015458   
    167. D(H  20,C  18,N  17,C  14)    -94.8898         0.015454   
    168. D(N  17,C  18,N  16,C  21)    177.3533         0.015458   
    169. D(N  17,C  18,N  16,C  12)    -18.8671         0.015458   
    170. D(C  36,C  19,C  18,H  20)   -123.4876         0.010621   
    171. D(C  36,C  19,C  18,N  17)     -5.5787         0.010621   
    172. D(C  36,C  19,C  18,N  16)    118.0114         0.010621   
    173. D(C  29,C  19,C  18,H  20)     51.9028         0.010621   
    174. D(C  29,C  19,C  18,N  17)    169.8116         0.010621   
    175. D(C  29,C  19,C  18,N  16)    -66.5983         0.010621   
    176. D(H  22,C  21,N  16,C  12)    138.0483         0.017241   
    177. D(H  24,C  21,N  16,C  18)     61.0385         0.017241   
    178. D(H  24,C  21,N  16,C  12)    -99.9556         0.017241   
    179. D(H  23,C  21,N  16,C  18)   -177.9925         0.017241   
    180. D(H  23,C  21,N  16,C  12)     21.0134         0.017241   
    181. D(H  22,C  21,N  16,C  18)    -60.9576         0.017241   
    182. D(H  28,C  25,N  17,C  18)     -4.9345         0.017107   
    183. D(H  28,C  25,N  17,C  14)    145.5252         0.017107   
    184. D(H  27,C  25,N  17,C  18)    115.3847         0.017107   
    185. D(H  27,C  25,N  17,C  14)    -94.1556         0.017107   
    186. D(H  26,C  25,N  17,C  18)   -124.7364         0.017107   
    187. D(H  26,C  25,N  17,C  14)     25.7233         0.017107   
    188. D(H  32,C  29,C  19,C  36)    178.2559         0.023034   
    189. D(H  32,C  29,C  19,C  18)      2.5778         0.023034   
    190. D(C  31,C  29,C  19,C  36)     -0.0521         0.023034   
    191. D(C  31,C  29,C  19,C  18)   -175.7302         0.023034   
    192. D(H  34,C  31,C  29,H  32)      1.0684         0.026114   
    193. D(H  34,C  31,C  29,C  19)    179.4197         0.026114   
    194. D(C  33,C  31,C  29,H  32)   -177.8879         0.026114   
    195. D(C  33,C  31,C  29,C  19)      0.4634         0.026114   
    196. D(H  35,C  33,C  31,H  34)      0.0363         0.026486   
    197. D(H  35,C  33,C  31,C  29)    178.9886         0.026486   
    198. D(C  30,C  33,C  31,H  34)   -179.4506         0.026486   
    199. D(C  30,C  33,C  31,C  29)     -0.4984         0.026486   
    200. D(H  35,C  33,C  30,H  37)     -0.1184         0.025580   
    201. D(H  35,C  33,C  30,C  36)   -179.3558         0.025580   
    202. D(C  31,C  33,C  30,H  37)    179.3651         0.025580   
    203. D(C  31,C  33,C  30,C  36)      0.1278         0.025580   
    204. D(H  38,C  36,C  30,H  37)      0.0128         0.024426   
    205. D(H  38,C  36,C  30,C  33)    179.2443         0.024426   
    206. D(C  19,C  36,C  30,H  37)   -178.9456         0.024426   
    207. D(C  19,C  36,C  30,C  33)      0.2860         0.024426   
    208. D(H  38,C  36,C  19,C  29)   -179.2410         0.023042   
    209. D(H  38,C  36,C  19,C  18)     -3.8784         0.023042   
    210. D(C  30,C  36,C  19,C  29)     -0.3201         0.023042   
    211. D(C  30,C  36,C  19,C  18)    175.0424         0.023042   
    -----------------------------------------------------------------

Number of atoms                         .... 39
Number of degrees of freedom            .... 211

         *************************************************************
         *                GEOMETRY OPTIMIZATION CYCLE   1            *
         *************************************************************
---------------------------------
CARTESIAN COORDINATES (ANGSTROEM)
---------------------------------
  C      1.059740    2.737320    0.345290
  C      0.245590    1.470590    0.281250
  H      0.771510    3.336240    1.232300
  H      0.887830    3.335830   -0.575190
  H      2.148790    2.525130    0.405420
  C     -1.911900    2.823050    0.129760
  C     -1.176010    1.509930    0.173320
  H     -3.008330    2.678420    0.029390
  H     -1.568150    3.413210   -0.747040
  H     -1.718430    3.400480    1.056700
  C      0.912660    0.228760    0.284170
  C     -1.904530    0.302850    0.062320
  C      0.157710   -0.939270    0.141060
  H      1.991260    0.192360    0.335590
  C     -1.199940   -0.903760    0.028420
  H     -2.980750    0.318240   -0.046170
  N      0.612130   -2.263470   -0.030350
  N     -1.692750   -2.210500   -0.213380
  C     -0.524820   -3.029000   -0.545830
  C     -0.568340   -4.500920   -0.140050
  H     -0.450470   -3.041970   -1.655570
  C      2.006220   -2.660030   -0.054320
  H      2.146160   -3.596250    0.523410
  H      2.650460   -1.904250    0.436470
  H      2.338630   -2.794710   -1.102890
  C     -3.050780   -2.493640   -0.637600
  H     -3.489530   -1.628930   -1.174180
  H     -3.680520   -2.713390    0.250730
  H     -3.068250   -3.366710   -1.322050
  C      0.443250   -5.345340   -0.643720
  C     -1.613150   -6.465350    0.863740
  C      0.430700   -6.717650   -0.396470
  H      1.238970   -4.946970   -1.258110
  C     -0.599710   -7.280090    0.352780
  H      1.214270   -7.345200   -0.802670
  H     -0.614580   -8.348360    0.528630
  C     -1.601150   -5.082870    0.624510
  H     -2.415990   -6.911440    1.436310
  H     -2.408220   -4.491790    1.026060

----------------------------
CARTESIAN COORDINATES (A.U.)
----------------------------
  NO LB      ZA    FRAG     MASS         X           Y           Z
   0 C     6.0000    0    12.011    2.002618    5.172785    0.652504
   1 C     6.0000    0    12.011    0.464098    2.779012    0.531485
   2 H     1.0000    0     1.008    1.457943    6.304580    2.328710
   3 H     1.0000    0     1.008    1.677756    6.303805   -1.086952
   4 H     1.0000    0     1.008    4.060625    4.771804    0.766133
   5 C     6.0000    0    12.011   -3.612967    5.334791    0.245211
   6 C     6.0000    0    12.011   -2.222337    2.853354    0.327527
   7 H     1.0000    0     1.008   -5.684920    5.061480    0.055539
   8 H     1.0000    0     1.008   -2.963374    6.450032   -1.411701
   9 H     1.0000    0     1.008   -3.247362    6.425976    1.996874
  10 C     6.0000    0    12.011    1.724677    0.432294    0.537003
  11 C     6.0000    0    12.011   -3.599040    0.572304    0.117768
  12 C     6.0000    0    12.011    0.298029   -1.774963    0.266565
  13 H     1.0000    0     1.008    3.762936    0.363508    0.634173
  14 C     6.0000    0    12.011   -2.267558   -1.707859    0.053706
  15 H     1.0000    0     1.008   -5.632801    0.601386   -0.087249
  16 N     7.0000    0    14.007    1.156758   -4.277338   -0.057353
  17 N     7.0000    0    14.007   -3.198834   -4.177240   -0.403230
  18 C     6.0000    0    12.011   -0.991766   -5.723980   -1.031469
  19 C     6.0000    0    12.011   -1.074007   -8.505506   -0.264656
  20 H     1.0000    0     1.008   -0.851265   -5.748490   -3.128574
  21 C     6.0000    0    12.011    3.791206   -5.026728   -0.102650
  22 H     1.0000    0     1.008    4.055655   -6.795928    0.989102
  23 H     1.0000    0     1.008    5.008644   -3.598511    0.824809
  24 H     1.0000    0     1.008    4.419370   -5.281237   -2.084160
  25 C     6.0000    0    12.011   -5.765139   -4.712297   -1.204889
  26 H     1.0000    0     1.008   -6.594256   -3.078232   -2.218879
  27 H     1.0000    0     1.008   -6.955175   -5.127564    0.473811
  28 H     1.0000    0     1.008   -5.798152   -6.362160   -2.498312
  29 C     6.0000    0    12.011    0.837621  -10.101229   -1.216455
  30 C     6.0000    0    12.011   -3.048412  -12.217741    1.632232
  31 C     6.0000    0    12.011    0.813905  -12.694519   -0.749220
  32 H     1.0000    0     1.008    2.341314   -9.348418   -2.377483
  33 C     6.0000    0    12.011   -1.133288  -13.757376    0.666658
  34 H     1.0000    0     1.008    2.294638  -13.880416   -1.516826
  35 H     1.0000    0     1.008   -1.161388  -15.776114    0.998966
  36 C     6.0000    0    12.011   -3.025735   -9.605232    1.180153
  37 H     1.0000    0     1.008   -4.565559  -13.060729    2.714233
  38 H     1.0000    0     1.008   -4.550876   -8.488253    1.938972

--------------------------------
INTERNAL COORDINATES (ANGSTROEM)
--------------------------------
 C      0   0   0     0.000000000000     0.00000000     0.00000000
 C      1   0   0     1.507164966750     0.00000000     0.00000000
 H      1   2   0     1.108408065380   110.34523947     0.00000000
 H      1   2   3     1.111328348689   109.50475345   239.56646109
 H      1   2   3     1.111157106579   111.79206764   120.64896015
 C      2   1   3     2.550854831581    90.79019016    60.35682007
 C      2   1   3     1.426233880014   121.22926953    60.58249725
 H      6   2   1     1.110473195849   140.48056125   178.36904392
 H      6   2   1     1.111409523128    93.82972564    54.40004203
 H      6   2   1     1.109086925989    94.52334348   304.76696614
 C      2   1   3     1.409656929966   118.99265468   238.46866476
 C      7   2   1     1.414250514159   119.72589775   177.50731259
 C     11   2   1     1.398114464377   118.70060313   183.91666210
 H     11   2   1     1.080438307540   120.14479141     0.23556546
 C     13  11   2     1.362777403760   121.64381985   358.59342469
 H     12   7   2     1.081783906610   120.54449431   181.60066640
 N     13  11   2     1.410455445769   128.52176513   172.37663972
 N     15  13  11     1.417356117460   109.66169906   175.23580843
 C     17  13  11     1.464380795353   106.46536278   197.52049873
 C     19  17  13     1.527448815902   115.61796638   211.06523622
 H     19  17  13     1.112303470731   107.78219357    94.21828414
 C     17  13  11     1.449593502538   124.65891289     1.72403360
 H     22  17  13     1.108991904795   110.10171372   138.04826650
 H     22  17  13     1.107756024628   111.42815196    21.01342450
 H     22  17  13     1.108212143680   109.71603683   260.04437343
 C     18  15  13     1.450646872571   123.73387727   192.40121313
 H     26  18  15     1.108216153555   111.09571638    25.72333305
 H     26  18  15     1.110852248951   109.60051278   265.84437282
 H     26  18  15     1.109517114920   110.40950981   145.52518600
 C     20  19  17     1.410688815225   117.48680954   293.40167609
 C     20  19  17     2.440943982376   153.76238134   123.57608341
 C     30  20  19     1.394462190631   121.28653564   184.26977041
 H     30  20  19     1.081362125932   120.66440735     2.57782879
 C     32  30  20     1.392644636725   119.96698007     0.46335789
 H     32  30  20     1.082958626818   119.81852744   179.41967067
 H     34  32  30     1.082748877764   119.73592827   178.98856758
 C     31  20  19     1.403077311947    29.91734993   350.69834784
 H     31  20  19     1.082305298241   150.08519552   352.52626142
 H     37  31  20     1.077951740014   118.05821796   178.95836519

---------------------------
INTERNAL COORDINATES (A.U.)
---------------------------
 C      0   0   0     0.000000000000     0.00000000     0.00000000
 C      1   0   0     2.848129025799     0.00000000     0.00000000
 H      1   2   0     2.094587688198   110.34523947     0.00000000
 H      1   2   3     2.100106223885   109.50475345   239.56646109
 H      1   2   3     2.099782623194   111.79206764   120.64896015
 C      2   1   3     4.820417039078    90.79019016    60.35682007
 C      2   1   3     2.695191436147   121.22926953    60.58249725
 H      6   2   1     2.098490219216   140.48056125   178.36904392
 H      6   2   1     2.100259621344    93.82972564    54.40004203
 H      6   2   1     2.095870548832    94.52334348   304.76696614
 C      2   1   3     2.663865540419   118.99265468   238.46866476
 C      7   2   1     2.672546156519   119.72589775   177.50731259
 C     11   2   1     2.642053441546   118.70060313   183.91666210
 H     11   2   1     2.041732505848   120.14479141     0.23556546
 C     13  11   2     2.575276074603   121.64381985   358.59342469
 H     12   7   2     2.044275319576   120.54449431   181.60066640
 N     13  11   2     2.665374516602   128.52176513   172.37663972
 N     15  13  11     2.678414896236   109.66169906   175.23580843
 C     17  13  11     2.767278658992   106.46536278   197.52049873
 C     19  17  13     2.886459945637   115.61796638   211.06523622
 H     19  17  13     2.101948937491   107.78219357    94.21828414
 C     17  13  11     2.739334725308   124.65891289     1.72403360
 H     22  17  13     2.095690984798   110.10171372   138.04826650
 H     22  17  13     2.093355509749   111.42815196    21.01342450
 H     22  17  13     2.094217449841   109.71603683   260.04437343
 C     18  15  13     2.741325306189   123.73387727   192.40121313
 H     26  18  15     2.094225027406   111.09571638    25.72333305
 H     26  18  15     2.099206525768   109.60051278   265.84437282
 H     26  18  15     2.096683488097   110.40950981   145.52518600
 C     20  19  17     2.665815520960   117.48680954   293.40167609
 C     20  19  17     4.612715634935   153.76238134   123.57608341
 C     30  20  19     2.635151644401   121.28653564   184.26977041
 H     30  20  19     2.043478269606   120.66440735     2.57782879
 C     32  30  20     2.631716965285   119.96698007     0.46335789
 H     32  30  20     2.046495219054   119.81852744   179.41967067
 H     34  32  30     2.046098850785   119.73592827   178.98856758
 C     31  20  19     2.651431864298    29.91734993   350.69834784
 H     31  20  19     2.045260606967   150.08519552   352.52626142
 H     37  31  20     2.037033574211   118.05821796   178.95836519

---------------------
BASIS SET INFORMATION
---------------------
There are 3 groups of distinct atoms

 Group   1 Type C   : 11s6p2d1f contracted to 5s3p2d1f pattern {62111/411/11/1}
 Group   2 Type H   : 5s1p contracted to 3s1p pattern {311/1}
 Group   3 Type N   : 11s6p2d1f contracted to 5s3p2d1f pattern {62111/411/11/1}

Atom   0C    basis set group =>   1
Atom   1C    basis set group =>   1
Atom   2H    basis set group =>   2
Atom   3H    basis set group =>   2
Atom   4H    basis set group =>   2
Atom   5C    basis set group =>   1
Atom   6C    basis set group =>   1
Atom   7H    basis set group =>   2
Atom   8H    basis set group =>   2
Atom   9H    basis set group =>   2
Atom  10C    basis set group =>   1
Atom  11C    basis set group =>   1
Atom  12C    basis set group =>   1
Atom  13H    basis set group =>   2
Atom  14C    basis set group =>   1
Atom  15H    basis set group =>   2
Atom  16N    basis set group =>   3
Atom  17N    basis set group =>   3
Atom  18C    basis set group =>   1
Atom  19C    basis set group =>   1
Atom  20H    basis set group =>   2
Atom  21C    basis set group =>   1
Atom  22H    basis set group =>   2
Atom  23H    basis set group =>   2
Atom  24H    basis set group =>   2
Atom  25C    basis set group =>   1
Atom  26H    basis set group =>   2
Atom  27H    basis set group =>   2
Atom  28H    basis set group =>   2
Atom  29C    basis set group =>   1
Atom  30C    basis set group =>   1
Atom  31C    basis set group =>   1
Atom  32H    basis set group =>   2
Atom  33C    basis set group =>   1
Atom  34H    basis set group =>   2
Atom  35H    basis set group =>   2
Atom  36C    basis set group =>   1
Atom  37H    basis set group =>   2
Atom  38H    basis set group =>   2
---------------------------------
AUXILIARY/J BASIS SET INFORMATION
---------------------------------
There are 3 groups of distinct atoms

 Group   1 Type C   : 12s5p4d2f1g contracted to 6s4p3d1f1g pattern {711111/2111/211/2/1}
 Group   2 Type H   : 5s2p1d contracted to 3s1p1d pattern {311/2/1}
 Group   3 Type N   : 12s5p4d2f1g contracted to 6s4p3d1f1g pattern {711111/2111/211/2/1}

Atom   0C    basis set group =>   1
Atom   1C    basis set group =>   1
Atom   2H    basis set group =>   2
Atom   3H    basis set group =>   2
Atom   4H    basis set group =>   2
Atom   5C    basis set group =>   1
Atom   6C    basis set group =>   1
Atom   7H    basis set group =>   2
Atom   8H    basis set group =>   2
Atom   9H    basis set group =>   2
Atom  10C    basis set group =>   1
Atom  11C    basis set group =>   1
Atom  12C    basis set group =>   1
Atom  13H    basis set group =>   2
Atom  14C    basis set group =>   1
Atom  15H    basis set group =>   2
Atom  16N    basis set group =>   3
Atom  17N    basis set group =>   3
Atom  18C    basis set group =>   1
Atom  19C    basis set group =>   1
Atom  20H    basis set group =>   2
Atom  21C    basis set group =>   1
Atom  22H    basis set group =>   2
Atom  23H    basis set group =>   2
Atom  24H    basis set group =>   2
Atom  25C    basis set group =>   1
Atom  26H    basis set group =>   2
Atom  27H    basis set group =>   2
Atom  28H    basis set group =>   2
Atom  29C    basis set group =>   1
Atom  30C    basis set group =>   1
Atom  31C    basis set group =>   1
Atom  32H    basis set group =>   2
Atom  33C    basis set group =>   1
Atom  34H    basis set group =>   2
Atom  35H    basis set group =>   2
Atom  36C    basis set group =>   1
Atom  37H    basis set group =>   2
Atom  38H    basis set group =>   2
--------------------------------------------------------------------------
[[6728,1],1]: A high-performance Open MPI point-to-point messaging module
was unable to find any relevant network interfaces:

Module: OpenFabrics (openib)
  Host: compute-0-8

Another transport will be used instead, although this may result in
lower performance.

NOTE: You can disable this warning by setting the MCA parameter
btl_base_warn_component_unused to 0.
--------------------------------------------------------------------------


           ************************************************************
           *        Program running with 4 parallel MPI-processes     *
           *              working on a common directory               *
           ************************************************************
------------------------------------------------------------------------------
                           ORCA GTO INTEGRAL CALCULATION
------------------------------------------------------------------------------

                         BASIS SET STATISTICS AND STARTUP INFO

 # of primitive gaussian shells          ...  500
 # of primitive gaussian functions       ... 1034
 # of contracted shells                  ...  289
 # of contracted basis functions         ...  709
 Highest angular momentum                ...    3
 Maximum contraction depth               ...    6
 Integral package used                   ... LIBINT
 Integral threshhold            Thresh   ...  2.500e-11
 Primitive cut-off              TCut     ...  2.500e-12


------------------------------ INTEGRAL EVALUATION ----------------------------


 * One electron integrals 
 Pre-screening matrix                    ... done
 Shell pair data                         ... done (   0.014 sec)

[compute-0-8.local:50904] 3 more processes have sent help message help-mpi-btl-base.txt / btl:no-nics
[compute-0-8.local:50904] Set MCA parameter "orte_base_help_aggregate" to 0 to see all help / error messages
--------------------------------------------------------------------------
[[6756,1],2]: A high-performance Open MPI point-to-point messaging module
was unable to find any relevant network interfaces:

Module: OpenFabrics (openib)
  Host: compute-0-8

Another transport will be used instead, although this may result in
lower performance.

NOTE: You can disable this warning by setting the MCA parameter
btl_base_warn_component_unused to 0.
--------------------------------------------------------------------------


           ************************************************************
           *        Program running with 4 parallel MPI-processes     *
           *              working on a common directory               *
           ************************************************************
-------------------------------------------------------------------------------
                                 ORCA SCF
-------------------------------------------------------------------------------

------------
SCF SETTINGS
------------
Hamiltonian:
 Density Functional     Method          .... DFT(GTOs)
 Exchange Functional    Exchange        .... WB97X-D3
 Correlation Functional Correlation     .... WB97X-D3
 Gradients option       PostSCFGGA      .... off
 Hybrid DFT is turned on
   Fraction HF Exchange ScalHFX         ....  0.195728
   Scaling of DF-GGA-X  ScalDFX         ....  0.000000
   Scaling of DF-GGA-C  ScalDFC         ....  1.000000
   Scaling of DF-LDA-C  ScalLDAC        ....  1.000000
   Perturbative correction              ....  0.000000
   Density functional embedding theory  .... OFF
 Long-range corrected/Screened/Range-Separated Hybrid DFT is turned on
   Amount of maximum screened exact exchange              ....  0.804272
   Range separation parameter mu (erf(mu*r12)/r12)        ....  0.250000


General Settings:
 Integral files         IntName         .... DMBI-Me2
 Hartree-Fock type      HFTyp           .... RHF
 Total Charge           Charge          ....    0
 Multiplicity           Mult            ....    1
 Number of Electrons    NEL             ....  136
 Basis Dimension        Dim             ....  709
 Nuclear Repulsion      ENuc            ....   1381.6503825295 Eh

Convergence Acceleration:
 DIIS                   CNVDIIS         .... on
   Start iteration      DIISMaxIt       ....    12
   Startup error        DIISStart       ....  0.200000
   # of expansion vecs  DIISMaxEq       ....     5
   Bias factor          DIISBfac        ....   1.050
   Max. coefficient     DIISMaxC        ....  10.000
 Newton-Raphson         CNVNR           .... off
 SOSCF                  CNVSOSCF        .... on
   Start iteration      SOSCFMaxIt      ....   150
   Startup grad/error   SOSCFStart      ....  0.003300
 Level Shifting         CNVShift        .... on
   Level shift para.    LevelShift      ....    0.2500
   Turn off err/grad.   ShiftErr        ....    0.0010
 Zerner damping         CNVZerner       .... off
 Static damping         CNVDamp         .... on
   Fraction old density DampFac         ....    0.7000
   Max. Damping (<1)    DampMax         ....    0.9800
   Min. Damping (>=0)   DampMin         ....    0.0000
   Turn off err/grad.   DampErr         ....    0.1000
 Fernandez-Rico         CNVRico         .... off

SCF Procedure:
 Maximum # iterations   MaxIter         ....   125
 SCF integral mode      SCFMode         .... Direct
   Integral package                     .... LIBINT
 Reset frequency        DirectResetFreq ....    20
 Integral Threshold     Thresh          ....  2.500e-11 Eh
 Primitive CutOff       TCut            ....  2.500e-12 Eh

Convergence Tolerance:
 Convergence Check Mode ConvCheckMode   .... Total+1el-Energy
 Convergence forced     ConvForced      .... 0
 Energy Change          TolE            ....  1.000e-08 Eh
 1-El. energy change                    ....  1.000e-05 Eh
 Orbital Gradient       TolG            ....  1.000e-05
 Orbital Rotation angle TolX            ....  1.000e-05
 DIIS Error             TolErr          ....  5.000e-07


Diagonalization of the overlap matrix:
Smallest eigenvalue                        ... 4.959e-06
Time for diagonalization                   ...    0.253 sec
Threshold for overlap eigenvalues          ... 1.000e-08
Number of eigenvalues below threshold      ... 0
Time for construction of square roots      ...    0.092 sec
Total time needed                          ...    0.347 sec

-------------------
DFT GRID GENERATION
-------------------

General Integration Accuracy     IntAcc      ...  4.340
Radial Grid Type                 RadialGrid  ... Gauss-Chebyshev
Angular Grid (max. acc.)         AngularGrid ... Lebedev-110
Angular grid pruning method      GridPruning ... 3 (G Style)
Weight generation scheme         WeightScheme... Becke
Basis function cutoff            BFCut       ...    1.0000e-11
Integration weight cutoff        WCut        ...    1.0000e-14
Grids for H and He will be reduced by one unit

# of grid points (after initial pruning)     ...  47436 (   0.0 sec)
# of grid points (after weights+screening)   ...  42251 (   0.3 sec)
nearest neighbour list constructed           ...    0.0 sec
Grid point re-assignment to atoms done       ...    0.0 sec
Grid point division into batches done        ...    0.0 sec
Reduced shell lists constructed in    0.3 sec

Total number of grid points                  ...    42251
Total number of batches                      ...      682
Average number of points per batch           ...       61
Average number of grid points per atom       ...     1083
Average number of shells per batch           ...   117.52 (40.66%)
Average number of basis functions per batch  ...   275.96 (38.92%)
Average number of large shells per batch     ...    78.29 (66.62%)
Average number of large basis fcns per batch ...   187.17 (67.83%)
Maximum spatial batch extension              ...  16.88, 18.16, 19.66 au
Average spatial batch extension              ...   0.87,  0.90,  1.07 au

Time for grid setup =    0.667 sec

------------------------------
INITIAL GUESS: MODEL POTENTIAL
------------------------------
Loading Hartree-Fock densities                     ... done
Calculating cut-offs                               ... done
Setting up the integral package                    ... done
Initializing the effective Hamiltonian             ... done
Starting the Coulomb interaction                   ... done (   0.9 sec)
Reading the grid                                   ... done
Mapping shells                                     ... done
Starting the XC term evaluation                    ... done (   1.0 sec)
  promolecular density results
     # of electrons  =    136.029841073
     EX              =   -105.952989895
     EC              =     -4.534810612
     EX+EC           =   -110.487800508
Transforming the Hamiltonian                       ... done (   0.1 sec)
Diagonalizing the Hamiltonian                      ... done (   0.2 sec)
Back transforming the eigenvectors                 ... done (   0.0 sec)
Now organizing SCF variables                       ... done
                      ------------------
                      INITIAL GUESS DONE (   3.0 sec)
                      ------------------

--------------------
CPCM SOLVATION MODEL
--------------------
CPCM parameters:
  Epsilon                                         ...       3.0000
  Refrac                                          ...       1.3300
  Rsolv                                           ...       1.3000
  Surface type                                    ...    GEPOL SES
  Epsilon function type                           ...         CPCM
Radii:
 Radius for C  used is    3.7795 Bohr (=   2.0000 Ang.)
 Radius for H  used is    2.4566 Bohr (=   1.3000 Ang.)
 Radius for N  used is    3.4582 Bohr (=   1.8300 Ang.)
Calculating surface                               ...        done! (  0.2s)
GEPOL surface points                              ...         1260
GEPOL Volume                                      ...    2187.0858
GEPOL Surface-area                                ...    1081.5751
Calculating surface distance matrix               ...        done! (  0.0s)
Performing Cholesky decomposition & store         ...        done! (  0.1s)
Overall time for CPCM initialization              ...                 0.3s
--------------
SCF ITERATIONS
--------------
ITER       Energy         Delta-E        Max-DP      RMS-DP      [F,P]     Damp
               ***  Starting incremental Fock matrix formation  ***
[compute-0-8.local:50932] 3 more processes have sent help message help-mpi-btl-base.txt / btl:no-nics
[compute-0-8.local:50932] Set MCA parameter "orte_base_help_aggregate" to 0 to see all help / error messages
  0   -768.9772637223   0.000000000000 0.02797211  0.00060957  0.1715545 0.7000
  1   -769.1329103552  -0.155646632958 0.02339342  0.00050548  0.1041013 0.7000
                               ***Turning on DIIS***
  2   -769.2185386321  -0.085628276910 0.05672687  0.00116045  0.0546015 0.0000
  3   -769.3615623800  -0.143023747882 0.01634585  0.00027493  0.0377954 0.0000
  4   -769.3792755037  -0.017713123680 0.00699341  0.00010748  0.0058811 0.0000
                      *** Initiating the SOSCF procedure ***
                           *** Shutting down DIIS ***
                      *** Re-Reading the Fockian *** 
                      *** Removing any level shift *** 
ITER      Energy       Delta-E        Grad      Rot      Max-DP    RMS-DP
  5   -769.37979174  -0.0005162398  0.001252  0.001252  0.004524  0.000053
               *** Restarting incremental Fock matrix formation ***
  6   -769.37987019  -0.0000784451  0.001058  0.003342  0.003648  0.000043
  7   -769.37989659  -0.0000263981  0.000441  0.003062  0.003559  0.000040
  8   -769.37990254  -0.0000059557  0.000222  0.000380  0.000572  0.000007
  9   -769.37990412  -0.0000015727  0.000081  0.000192  0.000219  0.000003
 10   -769.37990425  -0.0000001317  0.000033  0.000125  0.000102  0.000001
 11   -769.37990429  -0.0000000423  0.000015  0.000080  0.000062  0.000001
 12   -769.37990429   0.0000000002  0.000005  0.000019  0.000016  0.000000
 13   -769.37990429   0.0000000024  0.000003  0.000011  0.000017  0.000000
                  ***Gradient check signals convergence***
              ***Rediagonalizing the Fockian in SOSCF/NRSCF***

               *****************************************************
               *                     SUCCESS                       *
               *           SCF CONVERGED AFTER  14 CYCLES          *
               *****************************************************

Setting up the final grid:

General Integration Accuracy     IntAcc      ...  4.670
Radial Grid Type                 RadialGrid  ... Gauss-Chebyshev
Angular Grid (max. acc.)         AngularGrid ... Lebedev-302
Angular grid pruning method      GridPruning ... 3 (G Style)
Weight generation scheme         WeightScheme... Becke
Basis function cutoff            BFCut       ...    1.0000e-11
Integration weight cutoff        WCut        ...    1.0000e-14
Grids for H and He will be reduced by one unit

# of grid points (after initial pruning)     ... 185908 (   0.0 sec)
# of grid points (after weights+screening)   ... 161934 (   1.0 sec)
nearest neighbour list constructed           ...    0.0 sec
Grid point re-assignment to atoms done       ...    0.0 sec
Grid point division into batches done        ...    0.7 sec
Reduced shell lists constructed in    1.7 sec

Total number of grid points                  ...   161934
Total number of batches                      ...     2551
Average number of points per batch           ...       63
Average number of grid points per atom       ...     4152
Average number of shells per batch           ...   106.38 (36.81%)
Average number of basis functions per batch  ...   248.82 (35.09%)
Average number of large shells per batch     ...    69.40 (65.23%)
Average number of large basis fcns per batch ...   164.39 (66.07%)
Maximum spatial batch extension              ...  17.05, 18.31, 34.87 au
Average spatial batch extension              ...   0.59,  0.59,  0.71 au

Final grid set up in    2.9 sec
Final integration                            ... done (   3.9 sec)
Change in XC energy                          ...     0.002721795
Integrated number of electrons               ...   135.999940304
Previous integrated no of electrons          ...   136.025539248

----------------
TOTAL SCF ENERGY
----------------

Total Energy       :         -769.37718250 Eh          -20935.81749 eV

Components:
Nuclear Repulsion  :         1381.65038253 Eh           37596.61828 eV
Electronic Energy  :        -2151.02756503 Eh          -58532.43578 eV
One Electron Energy:        -3784.07957689 Eh         -102970.04018 eV
Two Electron Energy:         1633.05201186 Eh           44437.60441 eV
CPCM Dielectric    :           -0.00895818 Eh              -0.24376 eV

Virial components:
Potential Energy   :        -1534.50724498 Eh          -41756.06497 eV
Kinetic Energy     :          765.13006247 Eh           20820.24748 eV
Virial Ratio       :            2.00555085


DFT components:
N(Alpha)           :       67.999970152187 electrons
N(Beta)            :       67.999970152187 electrons
N(Total)           :      135.999940304374 electrons
E(XC)              :      -77.713376907525 Eh       
DFET-embed. en.    :        0.000000000000 Eh       
CPCM Solvation Model Properties:
Surface-charge          :           -0.04107821
Charge-correction       :           -0.00007268 Eh              -0.00198 eV
Free-energy (cav+disp)  :            0.00536980 Eh               0.14612 eV
Corrected G(solv)       :         -769.37188538 Eh          -20935.67335 eV

---------------
SCF CONVERGENCE
---------------

  Last Energy change         ...   -9.4036e-09  Tolerance :   1.0000e-08
  Last MAX-Density change    ...    2.4578e-05  Tolerance :   1.0000e-07
  Last RMS-Density change    ...    2.8420e-07  Tolerance :   5.0000e-09
  Last Orbital Gradient      ...    5.0564e-07  Tolerance :   1.0000e-05
  Last Orbital Rotation      ...    1.4888e-06  Tolerance :   1.0000e-05

             **** THE GBW FILE WAS UPDATED (DMBI-Me2.gbw) ****
             **** DENSITY FILE WAS UPDATED (DMBI-Me2.scfp) ****
             **** ENERGY FILE WAS UPDATED (DMBI-Me2.en.tmp) ****
             **** THE GBW FILE WAS UPDATED (DMBI-Me2.gbw) ****
             **** DENSITY FILE WAS UPDATED (DMBI-Me2.scfp) ****
----------------
ORBITAL ENERGIES
----------------

  NO   OCC          E(Eh)            E(eV) 
   0   2.0000     -14.432040      -392.7158 
   1   2.0000     -14.431427      -392.6991 
   2   2.0000     -10.353925      -281.7446 
   3   2.0000     -10.306022      -280.4411 
   4   2.0000     -10.306004      -280.4406 
   5   2.0000     -10.301113      -280.3075 
   6   2.0000     -10.299803      -280.2719 
   7   2.0000     -10.296240      -280.1749 
   8   2.0000     -10.285099      -279.8718 
   9   2.0000     -10.283476      -279.8276 
  10   2.0000     -10.282945      -279.8132 
  11   2.0000     -10.282027      -279.7882 
  12   2.0000     -10.280745      -279.7533 
  13   2.0000     -10.273901      -279.5671 
  14   2.0000     -10.273334      -279.5516 
  15   2.0000     -10.266508      -279.3659 
  16   2.0000     -10.265123      -279.3282 
  17   2.0000     -10.264854      -279.3209 
  18   2.0000     -10.264494      -279.3111 
  19   2.0000      -1.107255       -30.1300 
  20   2.0000      -1.011376       -27.5209 
  21   2.0000      -0.979941       -26.6656 
  22   2.0000      -0.960677       -26.1413 
  23   2.0000      -0.896750       -24.4018 
  24   2.0000      -0.872545       -23.7432 
  25   2.0000      -0.868207       -23.6251 
  26   2.0000      -0.864477       -23.5236 
  27   2.0000      -0.843422       -22.9507 
  28   2.0000      -0.805774       -21.9262 
  29   2.0000      -0.787551       -21.4303 
  30   2.0000      -0.771304       -20.9882 
  31   2.0000      -0.727082       -19.7849 
  32   2.0000      -0.718244       -19.5444 
  33   2.0000      -0.696207       -18.9447 
  34   2.0000      -0.682243       -18.5648 
  35   2.0000      -0.667883       -18.1740 
  36   2.0000      -0.625491       -17.0205 
  37   2.0000      -0.610119       -16.6022 
  38   2.0000      -0.595539       -16.2054 
  39   2.0000      -0.578499       -15.7418 
  40   2.0000      -0.574406       -15.6304 
  41   2.0000      -0.552944       -15.0464 
  42   2.0000      -0.547930       -14.9099 
  43   2.0000      -0.540205       -14.6997 
  44   2.0000      -0.538039       -14.6408 
  45   2.0000      -0.527896       -14.3648 
  46   2.0000      -0.524713       -14.2782 
  47   2.0000      -0.521731       -14.1970 
  48   2.0000      -0.516391       -14.0517 
  49   2.0000      -0.511075       -13.9071 
  50   2.0000      -0.500756       -13.6263 
  51   2.0000      -0.487904       -13.2766 
  52   2.0000      -0.478101       -13.0098 
  53   2.0000      -0.473831       -12.8936 
  54   2.0000      -0.473601       -12.8874 
  55   2.0000      -0.469222       -12.7682 
  56   2.0000      -0.465104       -12.6561 
  57   2.0000      -0.460465       -12.5299 
  58   2.0000      -0.437137       -11.8951 
  59   2.0000      -0.434662       -11.8278 
  60   2.0000      -0.426086       -11.5944 
  61   2.0000      -0.425890       -11.5891 
  62   2.0000      -0.373084       -10.1521 
  63   2.0000      -0.360604        -9.8125 
  64   2.0000      -0.344499        -9.3743 
  65   2.0000      -0.337517        -9.1843 
  66   2.0000      -0.299593        -8.1523 
  67   2.0000      -0.240490        -6.5441 
  68   0.0000       0.052463         1.4276 
  69   0.0000       0.058837         1.6010 
  70   0.0000       0.076286         2.0758 
  71   0.0000       0.093368         2.5407 
  72   0.0000       0.117206         3.1893 
  73   0.0000       0.125952         3.4273 
  74   0.0000       0.129688         3.5290 
  75   0.0000       0.142635         3.8813 
  76   0.0000       0.152230         4.1424 
  77   0.0000       0.154626         4.2076 
  78   0.0000       0.165314         4.4984 
  79   0.0000       0.174060         4.7364 
  80   0.0000       0.176754         4.8097 
  81   0.0000       0.180357         4.9078 
  82   0.0000       0.181429         4.9369 
  83   0.0000       0.186259         5.0684 
  84   0.0000       0.186447         5.0735 
  85   0.0000       0.202623         5.5137 
  86   0.0000       0.204064         5.5529 
  87   0.0000       0.207180         5.6377 
  88   0.0000       0.212117         5.7720 
  89   0.0000       0.213127         5.7995 
  90   0.0000       0.219665         5.9774 
  91   0.0000       0.228723         6.2239 
  92   0.0000       0.232277         6.3206 
  93   0.0000       0.233426         6.3518 
  94   0.0000       0.237392         6.4598 
  95   0.0000       0.242636         6.6025 
  96   0.0000       0.248724         6.7681 
  97   0.0000       0.257314         7.0019 
  98   0.0000       0.261451         7.1144 
  99   0.0000       0.264658         7.2017 
 100   0.0000       0.277984         7.5643 
 101   0.0000       0.280978         7.6458 
 102   0.0000       0.287067         7.8115 
 103   0.0000       0.291121         7.9218 
 104   0.0000       0.292466         7.9584 
 105   0.0000       0.295466         8.0400 
 106   0.0000       0.300707         8.1827 
 107   0.0000       0.307172         8.3586 
 108   0.0000       0.311432         8.4745 
 109   0.0000       0.312983         8.5167 
 110   0.0000       0.314538         8.5590 
 111   0.0000       0.321557         8.7500 
 112   0.0000       0.329436         8.9644 
 113   0.0000       0.332270         9.0415 
 114   0.0000       0.338634         9.2147 
 115   0.0000       0.343572         9.3491 
 116   0.0000       0.348313         9.4781 
 117   0.0000       0.352265         9.5856 
 118   0.0000       0.357237         9.7209 
 119   0.0000       0.364736         9.9250 
 120   0.0000       0.371465        10.1081 
 121   0.0000       0.378458        10.2984 
 122   0.0000       0.381375        10.3777 
 123   0.0000       0.384127        10.4526 
 124   0.0000       0.393166        10.6986 
 125   0.0000       0.397864        10.8264 
 126   0.0000       0.410202        11.1622 
 127   0.0000       0.412585        11.2270 
 128   0.0000       0.414417        11.2769 
 129   0.0000       0.418155        11.3786 
 130   0.0000       0.425946        11.5906 
 131   0.0000       0.430151        11.7050 
 132   0.0000       0.436112        11.8672 
 133   0.0000       0.439212        11.9516 
 134   0.0000       0.446087        12.1386 
 135   0.0000       0.453258        12.3338 
 136   0.0000       0.455982        12.4079 
 137   0.0000       0.461530        12.5589 
 138   0.0000       0.463485        12.6121 
 139   0.0000       0.468563        12.7502 
 140   0.0000       0.473280        12.8786 
 141   0.0000       0.475302        12.9336 
 142   0.0000       0.480982        13.0882 
 143   0.0000       0.486922        13.2498 
 144   0.0000       0.491561        13.3761 
 145   0.0000       0.496257        13.5038 
 146   0.0000       0.499872        13.6022 
 147   0.0000       0.503089        13.6898 
 148   0.0000       0.506818        13.7912 
 149   0.0000       0.510973        13.9043 
 150   0.0000       0.518644        14.1130 
 151   0.0000       0.523645        14.2491 
 152   0.0000       0.524496        14.2723 
 153   0.0000       0.529201        14.4003 
 154   0.0000       0.536728        14.6051 
 155   0.0000       0.537877        14.6364 
 156   0.0000       0.542777        14.7697 
 157   0.0000       0.545028        14.8310 
 158   0.0000       0.552646        15.0383 
 159   0.0000       0.553789        15.0694 
 160   0.0000       0.561333        15.2746 
 161   0.0000       0.562317        15.3014 
 162   0.0000       0.571233        15.5440 
 163   0.0000       0.573607        15.6086 
 164   0.0000       0.577626        15.7180 
 165   0.0000       0.581981        15.8365 
 166   0.0000       0.584035        15.8924 
 167   0.0000       0.592725        16.1289 
 168   0.0000       0.595525        16.2051 
 169   0.0000       0.597542        16.2600 
 170   0.0000       0.598510        16.2863 
 171   0.0000       0.610875        16.6228 
 172   0.0000       0.612724        16.6731 
 173   0.0000       0.615429        16.7467 
 174   0.0000       0.621038        16.8993 
 175   0.0000       0.622729        16.9453 
 176   0.0000       0.631795        17.1920 
 177   0.0000       0.637004        17.3338 
 178   0.0000       0.647495        17.6192 
 179   0.0000       0.665571        18.1111 
 180   0.0000       0.667088        18.1524 
 181   0.0000       0.676793        18.4165 
 182   0.0000       0.690547        18.7907 
 183   0.0000       0.696369        18.9492 
 184   0.0000       0.700877        19.0718 
 185   0.0000       0.708799        19.2874 
 186   0.0000       0.710210        19.3258 
 187   0.0000       0.722071        19.6486 
 188   0.0000       0.730706        19.8835 
 189   0.0000       0.735858        20.0237 
 190   0.0000       0.737558        20.0700 
 191   0.0000       0.740593        20.1526 
 192   0.0000       0.745003        20.2726 
 193   0.0000       0.755825        20.5670 
 194   0.0000       0.767708        20.8904 
 195   0.0000       0.773297        21.0425 
 196   0.0000       0.783056        21.3080 
 197   0.0000       0.786004        21.3882 
 198   0.0000       0.788630        21.4597 
 199   0.0000       0.791013        21.5245 
 200   0.0000       0.799339        21.7511 
 201   0.0000       0.815134        22.1809 
 202   0.0000       0.820900        22.3378 
 203   0.0000       0.822563        22.3831 
 204   0.0000       0.833574        22.6827 
 205   0.0000       0.839008        22.8306 
 206   0.0000       0.847118        23.0513 
 207   0.0000       0.853619        23.2282 
 208   0.0000       0.856257        23.2999 
 209   0.0000       0.872267        23.7356 
 210   0.0000       0.874989        23.8097 
 211   0.0000       0.883645        24.0452 
 212   0.0000       0.896182        24.3864 
 213   0.0000       0.903718        24.5914 
 214   0.0000       0.904642        24.6166 
 215   0.0000       0.909695        24.7540 
 216   0.0000       0.921623        25.0786 
 217   0.0000       0.924333        25.1524 
 218   0.0000       0.940140        25.5825 
 219   0.0000       0.949068        25.8255 
 220   0.0000       0.953364        25.9424 
 221   0.0000       0.966089        26.2886 
 222   0.0000       0.967595        26.3296 
 223   0.0000       0.971324        26.4311 
 224   0.0000       0.981192        26.6996 
 225   0.0000       0.990289        26.9471 
 226   0.0000       0.999209        27.1899 
 227   0.0000       1.006365        27.3846 
 228   0.0000       1.016499        27.6604 
 229   0.0000       1.029573        28.0161 
 230   0.0000       1.037991        28.2452 
 231   0.0000       1.047493        28.5037 
 232   0.0000       1.050259        28.5790 
 233   0.0000       1.061522        28.8855 
 234   0.0000       1.069661        29.1069 
 235   0.0000       1.075514        29.2662 
 236   0.0000       1.081110        29.4185 
 237   0.0000       1.089073        29.6352 
 238   0.0000       1.093153        29.7462 
 239   0.0000       1.108116        30.1534 
 240   0.0000       1.112170        30.2637 
 241   0.0000       1.116851        30.3911 
 242   0.0000       1.132420        30.8147 
 243   0.0000       1.134755        30.8782 
 244   0.0000       1.140303        31.0292 
 245   0.0000       1.155807        31.4511 
 246   0.0000       1.165237        31.7077 
 247   0.0000       1.171661        31.8825 
 248   0.0000       1.176130        32.0041 
 249   0.0000       1.180019        32.1100 
 250   0.0000       1.190372        32.3917 
 251   0.0000       1.198472        32.6121 
 252   0.0000       1.204093        32.7650 
 253   0.0000       1.214159        33.0389 
 254   0.0000       1.224334        33.3158 
 255   0.0000       1.228673        33.4339 
 256   0.0000       1.246592        33.9215 
 257   0.0000       1.260715        34.3058 
 258   0.0000       1.271953        34.6116 
 259   0.0000       1.275816        34.7167 
 260   0.0000       1.280383        34.8410 
 261   0.0000       1.294826        35.2340 
 262   0.0000       1.302785        35.4506 
 263   0.0000       1.311131        35.6777 
 264   0.0000       1.318409        35.8757 
 265   0.0000       1.335811        36.3493 
 266   0.0000       1.339038        36.4371 
 267   0.0000       1.348323        36.6897 
 268   0.0000       1.360326        37.0164 
 269   0.0000       1.363485        37.1023 
 270   0.0000       1.370289        37.2875 
 271   0.0000       1.373166        37.3657 
 272   0.0000       1.388582        37.7852 
 273   0.0000       1.397837        38.0371 
 274   0.0000       1.417040        38.5596 
 275   0.0000       1.420756        38.6607 
 276   0.0000       1.434963        39.0473 
 277   0.0000       1.438266        39.1372 
 278   0.0000       1.448240        39.4086 
 279   0.0000       1.456358        39.6295 
 280   0.0000       1.466299        39.9000 
 281   0.0000       1.478154        40.2226 
 282   0.0000       1.498063        40.7644 
 283   0.0000       1.511043        41.1176 
 284   0.0000       1.520809        41.3833 
 285   0.0000       1.527466        41.5645 
 286   0.0000       1.539468        41.8910 
 287   0.0000       1.543263        41.9943 
 288   0.0000       1.552382        42.2424 
 289   0.0000       1.566125        42.6164 
 290   0.0000       1.567314        42.6488 
 291   0.0000       1.587147        43.1885 
 292   0.0000       1.593567        43.3632 
 293   0.0000       1.594823        43.3973 
 294   0.0000       1.606087        43.7038 
 295   0.0000       1.610338        43.8195 
 296   0.0000       1.613528        43.9063 
 297   0.0000       1.616685        43.9922 
 298   0.0000       1.624882        44.2153 
 299   0.0000       1.625352        44.2281 
 300   0.0000       1.628285        44.3079 
 301   0.0000       1.645878        44.7866 
 302   0.0000       1.648851        44.8675 
 303   0.0000       1.652333        44.9623 
 304   0.0000       1.656000        45.0620 
 305   0.0000       1.656685        45.0807 
 306   0.0000       1.669169        45.4204 
 307   0.0000       1.672883        45.5215 
 308   0.0000       1.682107        45.7725 
 309   0.0000       1.690917        46.0122 
 310   0.0000       1.696639        46.1679 
 311   0.0000       1.699519        46.2463 
 312   0.0000       1.705504        46.4091 
 313   0.0000       1.719482        46.7895 
 314   0.0000       1.724565        46.9278 
 315   0.0000       1.731393        47.1136 
 316   0.0000       1.733963        47.1835 
 317   0.0000       1.738662        47.3114 
 318   0.0000       1.745358        47.4936 
 319   0.0000       1.755052        47.7574 
 320   0.0000       1.765795        48.0497 
 321   0.0000       1.780486        48.4495 
 322   0.0000       1.781871        48.4872 
 323   0.0000       1.786264        48.6067 
 324   0.0000       1.795350        48.8540 
 325   0.0000       1.798502        48.9397 
 326   0.0000       1.805384        49.1270 
 327   0.0000       1.806550        49.1587 
 328   0.0000       1.822884        49.6032 
 329   0.0000       1.827292        49.7231 
 330   0.0000       1.828801        49.7642 
 331   0.0000       1.840396        50.0797 
 332   0.0000       1.847378        50.2697 
 333   0.0000       1.855938        50.5026 
 334   0.0000       1.860465        50.6258 
 335   0.0000       1.866983        50.8032 
 336   0.0000       1.876009        51.0488 
 337   0.0000       1.897335        51.6291 
 338   0.0000       1.903712        51.8026 
 339   0.0000       1.916768        52.1579 
 340   0.0000       1.921328        52.2820 
 341   0.0000       1.947284        52.9883 
 342   0.0000       1.959755        53.3276 
 343   0.0000       1.963807        53.4379 
 344   0.0000       1.989561        54.1387 
 345   0.0000       1.994660        54.2775 
 346   0.0000       2.003181        54.5093 
 347   0.0000       2.017377        54.8956 
 348   0.0000       2.023914        55.0735 
 349   0.0000       2.032950        55.3194 
 350   0.0000       2.046279        55.6821 
 351   0.0000       2.061679        56.1011 
 352   0.0000       2.084558        56.7237 
 353   0.0000       2.093520        56.9676 
 354   0.0000       2.104621        57.2696 
 355   0.0000       2.108207        57.3672 
 356   0.0000       2.111257        57.4502 
 357   0.0000       2.116195        57.5846 
 358   0.0000       2.136114        58.1266 
 359   0.0000       2.138883        58.2020 
 360   0.0000       2.140162        58.2368 
 361   0.0000       2.147939        58.4484 
 362   0.0000       2.163519        58.8724 
 363   0.0000       2.166034        58.9408 
 364   0.0000       2.174040        59.1586 
 365   0.0000       2.181439        59.3600 
 366   0.0000       2.196984        59.7830 
 367   0.0000       2.206677        60.0467 
 368   0.0000       2.215145        60.2772 
 369   0.0000       2.234789        60.8117 
 370   0.0000       2.242504        61.0216 
 371   0.0000       2.258285        61.4511 
 372   0.0000       2.264620        61.6235 
 373   0.0000       2.265478        61.6468 
 374   0.0000       2.279624        62.0317 
 375   0.0000       2.286195        62.2105 
 376   0.0000       2.290238        62.3206 
 377   0.0000       2.299898        62.5834 
 378   0.0000       2.310463        62.8709 
 379   0.0000       2.316815        63.0437 
 380   0.0000       2.325448        63.2787 
 381   0.0000       2.331214        63.4355 
 382   0.0000       2.347515        63.8791 
 383   0.0000       2.351343        63.9833 
 384   0.0000       2.366786        64.4035 
 385   0.0000       2.377465        64.6941 
 386   0.0000       2.389976        65.0346 
 387   0.0000       2.393116        65.1200 
 388   0.0000       2.411184        65.6116 
 389   0.0000       2.418244        65.8038 
 390   0.0000       2.431085        66.1532 
 391   0.0000       2.437777        66.3353 
 392   0.0000       2.442855        66.4735 
 393   0.0000       2.454353        66.7863 
 394   0.0000       2.458871        66.9093 
 395   0.0000       2.468847        67.1807 
 396   0.0000       2.471136        67.2430 
 397   0.0000       2.483870        67.5895 
 398   0.0000       2.487259        67.6818 
 399   0.0000       2.491205        67.7891 
 400   0.0000       2.508133        68.2498 
 401   0.0000       2.518486        68.5315 
 402   0.0000       2.519840        68.5683 
 403   0.0000       2.535748        69.0012 
 404   0.0000       2.551938        69.4418 
 405   0.0000       2.563640        69.7602 
 406   0.0000       2.568365        69.8888 
 407   0.0000       2.579239        70.1847 
 408   0.0000       2.597878        70.6918 
 409   0.0000       2.599858        70.7457 
 410   0.0000       2.601647        70.7944 
 411   0.0000       2.614309        71.1390 
 412   0.0000       2.622366        71.3582 
 413   0.0000       2.628259        71.5186 
 414   0.0000       2.631463        71.6058 
 415   0.0000       2.636837        71.7520 
 416   0.0000       2.643600        71.9360 
 417   0.0000       2.645760        71.9948 
 418   0.0000       2.654429        72.2307 
 419   0.0000       2.661485        72.4227 
 420   0.0000       2.679923        72.9244 
 421   0.0000       2.689953        73.1973 
 422   0.0000       2.697245        73.3958 
 423   0.0000       2.701209        73.5036 
 424   0.0000       2.704807        73.6015 
 425   0.0000       2.715601        73.8953 
 426   0.0000       2.722360        74.0792 
 427   0.0000       2.735195        74.4284 
 428   0.0000       2.737036        74.4785 
 429   0.0000       2.743773        74.6619 
 430   0.0000       2.755500        74.9810 
 431   0.0000       2.760954        75.1294 
 432   0.0000       2.769930        75.3736 
 433   0.0000       2.776255        75.5457 
 434   0.0000       2.780834        75.6703 
 435   0.0000       2.788285        75.8731 
 436   0.0000       2.791567        75.9624 
 437   0.0000       2.802090        76.2487 
 438   0.0000       2.819070        76.7108 
 439   0.0000       2.828243        76.9604 
 440   0.0000       2.832102        77.0654 
 441   0.0000       2.836054        77.1730 
 442   0.0000       2.853694        77.6530 
 443   0.0000       2.860535        77.8391 
 444   0.0000       2.866890        78.0120 
 445   0.0000       2.877459        78.2996 
 446   0.0000       2.880942        78.3944 
 447   0.0000       2.889638        78.6310 
 448   0.0000       2.897905        78.8560 
 449   0.0000       2.905051        79.0505 
 450   0.0000       2.919765        79.4508 
 451   0.0000       2.929734        79.7221 
 452   0.0000       2.935697        79.8844 
 453   0.0000       2.943374        80.0933 
 454   0.0000       2.950156        80.2778 
 455   0.0000       2.960544        80.5605 
 456   0.0000       2.968669        80.7816 
 457   0.0000       2.969817        80.8128 
 458   0.0000       2.979301        81.0709 
 459   0.0000       2.984773        81.2198 
 460   0.0000       2.996234        81.5317 
 461   0.0000       3.004822        81.7654 
 462   0.0000       3.011037        81.9345 
 463   0.0000       3.017473        82.1096 
 464   0.0000       3.026893        82.3660 
 465   0.0000       3.032317        82.5135 
 466   0.0000       3.039806        82.7173 
 467   0.0000       3.047655        82.9309 
 468   0.0000       3.051232        83.0282 
 469   0.0000       3.057660        83.2032 
 470   0.0000       3.074953        83.6737 
 471   0.0000       3.088839        84.0516 
 472   0.0000       3.106085        84.5209 
 473   0.0000       3.117725        84.8376 
 474   0.0000       3.130173        85.1763 
 475   0.0000       3.136880        85.3588 
 476   0.0000       3.146229        85.6132 
 477   0.0000       3.158291        85.9415 
 478   0.0000       3.164650        86.1145 
 479   0.0000       3.172919        86.3395 
 480   0.0000       3.175172        86.4008 
 481   0.0000       3.189082        86.7793 
 482   0.0000       3.197771        87.0158 
 483   0.0000       3.209812        87.3434 
 484   0.0000       3.213182        87.4351 
 485   0.0000       3.219046        87.5947 
 486   0.0000       3.226292        87.7919 
 487   0.0000       3.227969        87.8375 
 488   0.0000       3.240169        88.1695 
 489   0.0000       3.245861        88.3244 
 490   0.0000       3.249453        88.4221 
 491   0.0000       3.254902        88.5704 
 492   0.0000       3.258676        88.6731 
 493   0.0000       3.266421        88.8838 
 494   0.0000       3.269838        88.9768 
 495   0.0000       3.272315        89.0442 
 496   0.0000       3.280873        89.2771 
 497   0.0000       3.285057        89.3910 
 498   0.0000       3.291766        89.5735 
 499   0.0000       3.297920        89.7410 
 500   0.0000       3.309144        90.0464 
 501   0.0000       3.310804        90.0916 
 502   0.0000       3.319113        90.3177 
 503   0.0000       3.319944        90.3403 
 504   0.0000       3.328419        90.5709 
 505   0.0000       3.340235        90.8924 
 506   0.0000       3.344870        91.0185 
 507   0.0000       3.348903        91.1283 
 508   0.0000       3.361835        91.4802 
 509   0.0000       3.365022        91.5669 
 510   0.0000       3.375641        91.8559 
 511   0.0000       3.379690        91.9660 
 512   0.0000       3.386417        92.1491 
 513   0.0000       3.391081        92.2760 
 514   0.0000       3.394272        92.3628 
 515   0.0000       3.397346        92.4465 
 516   0.0000       3.400784        92.5400 
 517   0.0000       3.411907        92.8427 
 518   0.0000       3.417615        92.9980 
 519   0.0000       3.422621        93.1343 
 520   0.0000       3.430735        93.3550 
 521   0.0000       3.434530        93.4583 
 522   0.0000       3.440041        93.6083 
[...]
      f-1     :     0.004838
      f+2     :     0.002303
      f-2     :     0.008253
      f+3     :     0.007724
      f-3     :     0.013908
 11 C s       :     2.744335  s :     2.744335
      pz      :     0.941758  p :     2.950983
      px      :     0.983030
      py      :     1.026196
      dz2     :     0.026062  d :     0.376852
      dxz     :     0.021580
      dyz     :     0.083937
      dx2y2   :     0.146530
      dxy     :     0.098743
      f0      :     0.003468  f :     0.043048
      f+1     :     0.002473
      f-1     :     0.004907
      f+2     :     0.002312
      f-2     :     0.008362
      f+3     :     0.007782
      f-3     :     0.013744
 12 C s       :     2.682550  s :     2.682550
      pz      :     0.875648  p :     2.789412
      px      :     0.990813
      py      :     0.922951
      dz2     :     0.049263  d :     0.621985
      dxz     :     0.074785
      dyz     :     0.144346
      dx2y2   :     0.191323
      dxy     :     0.162269
      f0      :     0.006173  f :     0.080605
      f+1     :     0.004810
      f-1     :     0.006995
      f+2     :     0.013472
      f-2     :     0.009126
      f+3     :     0.013346
      f-3     :     0.026682
 13 H s       :     0.788954  s :     0.788954
      pz      :     0.015756  p :     0.059858
      px      :     0.033547
      py      :     0.010555
 14 C s       :     2.682457  s :     2.682457
      pz      :     0.870911  p :     2.789228
      px      :     0.994786
      py      :     0.923531
      dz2     :     0.049976  d :     0.622297
      dxz     :     0.075687
      dyz     :     0.137022
      dx2y2   :     0.189482
      dxy     :     0.170130
      f0      :     0.005619  f :     0.080671
      f+1     :     0.004890
      f-1     :     0.007687
      f+2     :     0.012586
      f-2     :     0.009268
      f+3     :     0.014556
      f-3     :     0.026064
 15 H s       :     0.788976  s :     0.788976
      pz      :     0.015928  p :     0.059879
      px      :     0.033393
      py      :     0.010559
 16 N s       :     2.893322  s :     2.893322
      pz      :     1.394016  p :     3.624840
      px      :     1.104933
      py      :     1.125891
      dz2     :     0.034069  d :     0.289078
      dxz     :     0.051506
      dyz     :     0.037828
      dx2y2   :     0.081496
      dxy     :     0.084180
      f0      :     0.001799  f :     0.021712
      f+1     :     0.002704
      f-1     :     0.001699
      f+2     :     0.003513
      f-2     :     0.002897
      f+3     :     0.004490
      f-3     :     0.004610
 17 N s       :     2.892977  s :     2.892977
      pz      :     1.369799  p :     3.624041
      px      :     1.129320
      py      :     1.124922
      dz2     :     0.040561  d :     0.289415
      dxz     :     0.052227
      dyz     :     0.039400
      dx2y2   :     0.074155
      dxy     :     0.083072
      f0      :     0.002250  f :     0.021730
      f+1     :     0.002666
      f-1     :     0.001830
      f+2     :     0.002571
      f-2     :     0.003277
      f+3     :     0.004919
      f-3     :     0.004216
 18 C s       :     2.725722  s :     2.725722
      pz      :     0.974153  p :     2.757202
      px      :     0.850076
      py      :     0.932973
      dz2     :     0.166793  d :     0.654221
      dxz     :     0.117663
      dyz     :     0.085889
      dx2y2   :     0.137185
      dxy     :     0.146690
      f0      :     0.008445  f :     0.085266
      f+1     :     0.010517
      f-1     :     0.008276
      f+2     :     0.011499
      f-2     :     0.015359
      f+3     :     0.017670
      f-3     :     0.013500
 19 C s       :     2.706088  s :     2.706088
      pz      :     1.042520  p :     2.870065
      px      :     0.852278
      py      :     0.975267
      dz2     :     0.135365  d :     0.507497
      dxz     :     0.076150
      dyz     :     0.161190
      dx2y2   :     0.073062
      dxy     :     0.061730
      f0      :     0.010561  f :     0.057840
      f+1     :     0.005388
      f-1     :     0.016203
      f+2     :     0.008188
      f-2     :     0.007215
      f+3     :     0.005191
      f-3     :     0.005095
 20 H s       :     0.804085  s :     0.804085
      pz      :     0.035705  p :     0.055502
      px      :     0.010148
      py      :     0.009649
 21 C s       :     2.829628  s :     2.829628
      pz      :     1.083295  p :     3.086959
      px      :     0.919348
      py      :     1.084317
      dz2     :     0.063573  d :     0.339458
      dxz     :     0.113608
      dyz     :     0.016127
      dx2y2   :     0.078755
      dxy     :     0.067395
      f0      :     0.005268  f :     0.040839
      f+1     :     0.005445
      f-1     :     0.002427
      f+2     :     0.006965
      f-2     :     0.005164
      f+3     :     0.006541
      f-3     :     0.009029
 22 H s       :     0.813128  s :     0.813128
      pz      :     0.013738  p :     0.061508
      px      :     0.010945
      py      :     0.036825
 23 H s       :     0.814993  s :     0.814993
      pz      :     0.022865  p :     0.061353
      px      :     0.018908
      py      :     0.019580
 24 H s       :     0.828059  s :     0.828059
      pz      :     0.034747  p :     0.060820
      px      :     0.011571
      py      :     0.014502
 25 C s       :     2.829654  s :     2.829654
      pz      :     1.022795  p :     3.087870
      px      :     0.980001
      py      :     1.085074
      dz2     :     0.127420  d :     0.339306
      dxz     :     0.064395
      dyz     :     0.023761
      dx2y2   :     0.063337
      dxy     :     0.060394
      f0      :     0.003649  f :     0.040856
      f+1     :     0.010849
      f-1     :     0.003514
      f+2     :     0.006416
      f-2     :     0.006876
      f+3     :     0.003445
      f-3     :     0.006107
 26 H s       :     0.827889  s :     0.827889
      pz      :     0.034589  p :     0.060783
      px      :     0.011670
      py      :     0.014524
 27 H s       :     0.814359  s :     0.814359
      pz      :     0.014226  p :     0.061238
      px      :     0.027387
      py      :     0.019625
 28 H s       :     0.812852  s :     0.812852
      pz      :     0.011968  p :     0.061485
      px      :     0.012757
      py      :     0.036760
 29 C s       :     2.754790  s :     2.754790
      pz      :     0.987755  p :     2.929629
      px      :     0.886464
      py      :     1.055410
      dz2     :     0.106060  d :     0.388725
      dxz     :     0.021628
      dyz     :     0.115179
      dx2y2   :     0.067230
      dxy     :     0.078627
      f0      :     0.005964  f :     0.043580
      f+1     :     0.001800
      f-1     :     0.011395
      f+2     :     0.007433
      f-2     :     0.006628
      f+3     :     0.004784
      f-3     :     0.005578
 30 C s       :     2.762269  s :     2.762269
      pz      :     0.992571  p :     2.947926
      px      :     0.887159
      py      :     1.068197
      dz2     :     0.106535  d :     0.388569
      dxz     :     0.021876
      dyz     :     0.115211
      dx2y2   :     0.068270
      dxy     :     0.076678
      f0      :     0.006085  f :     0.043699
      f+1     :     0.001837
      f-1     :     0.011451
      f+2     :     0.007369
      f-2     :     0.006492
      f+3     :     0.004739
      f-3     :     0.005725
 31 C s       :     2.762325  s :     2.762325
      pz      :     1.030562  p :     2.951482
      px      :     0.892570
      py      :     1.028349
      dz2     :     0.081956  d :     0.388361
      dxz     :     0.046503
      dyz     :     0.163114
      dx2y2   :     0.047082
      dxy     :     0.049705
      f0      :     0.008839  f :     0.043708
      f+1     :     0.005852
      f-1     :     0.011021
      f+2     :     0.006222
      f-2     :     0.002363
      f+3     :     0.004994
      f-3     :     0.004415
 32 H s       :     0.787580  s :     0.787580
      pz      :     0.032819  p :     0.059100
      px      :     0.014258
      py      :     0.012023
 33 C s       :     2.763252  s :     2.763252
      pz      :     1.059118  p :     2.948052
      px      :     0.887911
      py      :     1.001023
      dz2     :     0.121912  d :     0.389428
      dxz     :     0.071416
      dyz     :     0.119279
      dx2y2   :     0.053645
      dxy     :     0.023177
      f0      :     0.008939  f :     0.043803
      f+1     :     0.005019
      f-1     :     0.012188
      f+2     :     0.006042
      f-2     :     0.006273
      f+3     :     0.001910
      f-3     :     0.003431
 34 H s       :     0.790899  s :     0.790899
      pz      :     0.021873  p :     0.058876
      px      :     0.013446
      py      :     0.023557
 35 H s       :     0.791016  s :     0.791016
      pz      :     0.012735  p :     0.058739
      px      :     0.013045
      py      :     0.032960
 36 C s       :     2.754122  s :     2.754122
      pz      :     1.013171  p :     2.919327
      px      :     0.873940
      py      :     1.032217
      dz2     :     0.082051  d :     0.384945
      dxz     :     0.045806
      dyz     :     0.159710
      dx2y2   :     0.048271
      dxy     :     0.049107
      f0      :     0.008776  f :     0.043834
      f+1     :     0.005797
      f-1     :     0.011028
      f+2     :     0.006323
      f-2     :     0.002386
      f+3     :     0.005061
      f-3     :     0.004463
 37 H s       :     0.790908  s :     0.790908
      pz      :     0.032833  p :     0.058794
      px      :     0.014040
      py      :     0.011921
 38 H s       :     0.784653  s :     0.784653
      pz      :     0.021416  p :     0.059630
      px      :     0.013011
      py      :     0.025203


                      *****************************
                      * MAYER POPULATION ANALYSIS *
                      *****************************

  NA   - Mulliken gross atomic population
  ZA   - Total nuclear charge
  QA   - Mulliken gross atomic charge
  VA   - Mayer's total valence
  BVA  - Mayer's bonded valence
  FA   - Mayer's free valence

  ATOM       NA         ZA         QA         VA         BVA        FA
  0 C      6.3955     6.0000    -0.3955     3.8675     3.8675    -0.0000
  1 C      5.9287     6.0000     0.0713     3.7392     3.7392    -0.0000
  2 H      0.8644     1.0000     0.1356     0.9616     0.9616    -0.0000
  3 H      0.8641     1.0000     0.1359     0.9616     0.9616    -0.0000
  4 H      0.8678     1.0000     0.1322     0.9748     0.9748    -0.0000
  5 C      6.4040     6.0000    -0.4040     3.8625     3.8625    -0.0000
  6 C      5.9341     6.0000     0.0659     3.7397     3.7397    -0.0000
  7 H      0.8665     1.0000     0.1335     0.9743     0.9743    -0.0000
  8 H      0.8616     1.0000     0.1384     0.9604     0.9604    -0.0000
  9 H      0.8611     1.0000     0.1389     0.9603     0.9603    -0.0000
 10 C      6.3449     6.0000    -0.3449     3.9893     3.9893    -0.0000
 11 C      6.3513     6.0000    -0.3513     3.9867     3.9867    -0.0000
 12 C      5.9184     6.0000     0.0816     3.9337     3.9337    -0.0000
 13 H      0.8604     1.0000     0.1396     0.9790     0.9790    -0.0000
 14 C      5.9224     6.0000     0.0776     3.9341     3.9341    -0.0000
 15 H      0.8607     1.0000     0.1393     0.9791     0.9791    -0.0000
 16 N      7.1201     7.0000    -0.1201     3.0984     3.0984    -0.0000
 17 N      7.1160     7.0000    -0.1160     3.0883     3.0883    -0.0000
 18 C      5.8703     6.0000     0.1297     3.7577     3.7577    -0.0000
 19 C      5.9128     6.0000     0.0872     3.3754     3.3754    -0.0000
 20 H      0.9034     1.0000     0.0966     0.9821     0.9821    -0.0000
 21 C      6.3113     6.0000    -0.3113     3.9004     3.9004    -0.0000
 22 H      0.8465     1.0000     0.1535     0.9635     0.9635    -0.0000
 23 H      0.8542     1.0000     0.1458     0.9634     0.9634    -0.0000
 24 H      0.8800     1.0000     0.1200     0.9757     0.9757    -0.0000
 25 C      6.3243     6.0000    -0.3243     3.8984     3.8984    -0.0000
 26 H      0.8775     1.0000     0.1225     0.9743     0.9743    -0.0000
 27 H      0.8502     1.0000     0.1498     0.9618     0.9618    -0.0000
 28 H      0.8440     1.0000     0.1560     0.9614     0.9614    -0.0000
 29 C      6.1890     6.0000    -0.1890     3.9144     3.9144    -0.0000
 30 C      6.1727     6.0000    -0.1727     3.9045     3.9045    -0.0000
 31 C      6.1536     6.0000    -0.1536     3.8939     3.8939    -0.0000
 32 H      0.8595     1.0000     0.1405     0.9806     0.9806    -0.0000
 33 C      6.1350     6.0000    -0.1350     3.8649     3.8649    -0.0000
 34 H      0.8531     1.0000     0.1469     0.9680     0.9680    -0.0000
 35 H      0.8461     1.0000     0.1539     0.9627     0.9627    -0.0000
 36 C      6.2653     6.0000    -0.2653     4.0209     4.0209    -0.0000
 37 H      0.8541     1.0000     0.1459     0.9679     0.9679    -0.0000
 38 H      0.8551     1.0000     0.1449     0.9983     0.9983    -0.0000

  Mayer bond orders larger than 0.100000
B(  0-C ,  1-C ) :   0.9101 B(  0-C ,  2-H ) :   0.9777 B(  0-C ,  3-H ) :   0.9798 
B(  0-C ,  4-H ) :   0.9837 B(  1-C ,  6-C ) :   1.4042 B(  1-C , 10-C ) :   1.4077 
B(  5-C ,  6-C ) :   0.9064 B(  5-C ,  7-H ) :   0.9848 B(  5-C ,  8-H ) :   0.9761 
B(  5-C ,  9-H ) :   0.9796 B(  6-C , 11-C ) :   1.4102 B( 10-C , 12-C ) :   1.4145 
B( 10-C , 13-H ) :   0.9365 B( 11-C , 14-C ) :   1.4095 B( 11-C , 15-H ) :   0.9388 
B( 12-C , 14-C ) :   1.2708 B( 12-C , 16-N ) :   1.1250 B( 14-C , 17-N ) :   1.1280 
B( 16-N , 18-C ) :   0.9945 B( 16-N , 21-C ) :   0.9514 B( 17-N , 18-C ) :   0.9882 
B( 17-N , 25-C ) :   0.9491 B( 18-C , 19-C ) :   0.8719 B( 18-C , 20-H ) :   0.9852 
B( 19-C , 29-C ) :   1.3419 B( 19-C , 36-C ) :   1.3536 B( 21-C , 22-H ) :   0.9684 
B( 21-C , 23-H ) :   0.9679 B( 21-C , 24-H ) :   0.9624 B( 25-C , 26-H ) :   0.9623 
B( 25-C , 27-H ) :   0.9680 B( 25-C , 28-H ) :   0.9678 B( 29-C , 31-C ) :   1.4087 
B( 29-C , 32-H ) :   0.9827 B( 30-C , 33-C ) :   1.3674 B( 30-C , 36-C ) :   1.4480 
B( 30-C , 37-H ) :   0.9877 B( 31-C , 33-C ) :   1.4020 B( 31-C , 34-H ) :   0.9899 
B( 33-C , 35-H ) :   0.9793 B( 36-C , 38-H ) :   0.9876 

-------
TIMINGS
-------

Total SCF time: 0 days 0 hours 19 min 9 sec 

Total time                  ....    1149.353 sec
Sum of individual times     ....    1147.457 sec  ( 99.8%)

Fock matrix formation       ....    1141.765 sec  ( 99.3%)
  XC integration            ....       8.536 sec  (  0.7% of F)
    Basis function eval.    ....       1.653 sec  ( 19.4% of XC)
    Density eval.           ....       2.514 sec  ( 29.5% of XC)
    XC-Functional eval.     ....       0.464 sec  (  5.4% of XC)
    XC-Potential eval.      ....       3.619 sec  ( 42.4% of XC)
Diagonalization             ....       0.356 sec  (  0.0%)
Density matrix formation    ....       0.040 sec  (  0.0%)
Population analysis         ....       0.223 sec  (  0.0%)
Initial guess               ....       0.350 sec  (  0.0%)
Orbital Transformation      ....       0.000 sec  (  0.0%)
Orbital Orthonormalization  ....       0.310 sec  (  0.0%)
DIIS solution               ....       0.095 sec  (  0.0%)
SOSCF solution              ....       1.028 sec  (  0.1%)
Grid generation             ....       3.600 sec  (  0.3%)


-------------------------------------------------------------------------------
                          DFT DISPERSION CORRECTION                            
                                                                               
                              DFTD3 V3.1  Rev 1                                
                              USING zero damping                               
-------------------------------------------------------------------------------
The omegaB97X-D3 functional is recognized. Fit by Chai et al.
Active option DFTDOPT                   ...         3   

molecular C6(AA) [au] = 15369.501626 


            DFT-D V3
 parameters
 s6 scaling factor         :     1.0000 
 rs6 scaling factor        :     1.2810 
 s8 scaling factor         :     1.0000 
 rs8 scaling factor        :     1.0940 
 Damping factor alpha6     :    14.0000 
 Damping factor alpha8     :    16.0000 
 ad hoc parameters k1-k3   :    16.0000     1.3333    -4.0000 

 Edisp/kcal,au: -11.034317328845  -0.017584302083 
 E6   /kcal   :  -5.213762712 
 E8   /kcal   :  -5.820554617 
 % E8         :  52.749567040 

-------------------------   ----------------
Dispersion correction           -0.017584302
-------------------------   ----------------


-------------------------   --------------------
FINAL SINGLE POINT ENERGY      -769.422711844865
-------------------------   --------------------

                                *** OPTIMIZATION RUN DONE ***

                            ***************************************
                            *     ORCA property calculations      *
                            ***************************************

                                    ---------------------
                                    Active property flags
                                    ---------------------
   (+) Dipole Moment


------------------------------------------------------------------------------
                       ORCA ELECTRIC PROPERTIES CALCULATION
------------------------------------------------------------------------------

Dipole Moment Calculation                       ... on
Quadrupole Moment Calculation                   ... off
Polarizability Calculation                      ... off
GBWName                                         ... DMBI-Me2.gbw
Electron density file                           ... DMBI-Me2.scfp
The origin for moment calculation is the CENTER OF MASS  = (-0.996399, -3.995595  0.077455)

-------------
DIPOLE MOMENT
-------------
                                X             Y             Z
Electronic contribution:     -0.48435     -10.41766       1.95790
Nuclear contribution   :      0.59904       9.92458      -2.49687
                        -----------------------------------------
Total Dipole Moment    :      0.11469      -0.49308      -0.53896
                        -----------------------------------------
Magnitude (a.u.)       :      0.73944
Magnitude (Debye)      :      1.87950



--------------------
Rotational spectrum 
--------------------
 
Rotational constants in cm-1:     0.033410     0.006724     0.006118 
Rotational constants in MHz :  1001.592840   201.580102   183.404502 

 Dipole components along the rotational axes: 
x,y,z [a.u.] :     0.502540    -0.007377    -0.542372 
x,y,z [Debye]:     1.277356    -0.018750    -1.378599 

 
--------------------------------------------------------------------------
[[9187,1],3]: A high-performance Open MPI point-to-point messaging module
was unable to find any relevant network interfaces:

Module: OpenFabrics (openib)
  Host: compute-0-8

Another transport will be used instead, although this may result in
lower performance.

NOTE: You can disable this warning by setting the MCA parameter
btl_base_warn_component_unused to 0.
--------------------------------------------------------------------------
[compute-0-8.local:65395] 3 more processes have sent help message help-mpi-btl-base.txt / btl:no-nics
[compute-0-8.local:65395] Set MCA parameter "orte_base_help_aggregate" to 0 to see all help / error messages

Timings for individual modules:

Sum of individual times         ...   166538.253 sec (=2775.638 min)
GTO integral calculation        ...      271.038 sec (=   4.517 min)   0.2 %
SCF iterations                  ...    92643.825 sec (=1544.064 min)  55.6 %
SCF Gradient evaluation         ...    73592.432 sec (=1226.541 min)  44.2 %
Geometry relaxation             ...       30.958 sec (=   0.516 min)   0.0 %
                             ****ORCA TERMINATED NORMALLY****
TOTAL RUN TIME: 1 days 22 hours 16 minutes 5 seconds 426 msec
