Warning: no access to tty (Bad file descriptor).
Thus no job control in this shell.

                                 *****************
                                 * O   R   C   A *
                                 *****************

           --- An Ab Initio, DFT and Semiempirical electronic structure package ---

                  #######################################################
                  #                        -***-                        #
                  #          Department of theory and spectroscopy      #
                  #               Directorship: Frank Neese             #
                  #        Max Planck Institute fuer Kohlenforschung    #
                  #                Kaiser Wilhelm Platz 1               #
                  #                 D-45470 Muelheim/Ruhr               #
                  #                      Germany                        #
                  #                                                     #
                  #                  All rights reserved                #
                  #                        -***-                        #
                  #######################################################


                         Program Version 4.2.1 -  RELEASE  -


 With contributions from (in alphabetic order):
   Daniel Aravena         : Magnetic Suceptibility
   Michael Atanasov       : Ab Initio Ligand Field Theory (pilot matlab implementation)
   Alexander A. Auer      : GIAO ZORA, VPT2
   Ute Becker             : Parallelization
   Giovanni Bistoni       : ED, misc. LED, open-shell LED, HFLD
   Martin Brehm           : Molecular dynamics
   Dmytro Bykov           : SCF Hessian
   Vijay G. Chilkuri      : MRCI spin determinant printing, contributions to CSF-ICE
   Dipayan Datta          : RHF DLPNO-CCSD density
   Achintya Kumar Dutta   : EOM-CC, STEOM-CC
   Dmitry Ganyushin       : Spin-Orbit,Spin-Spin,Magnetic field MRCI
   Miquel Garcia          : C-PCM Hessian, Gaussian charge scheme
   Yang Guo               : DLPNO-NEVPT2, CIM, IAO-localization
   Andreas Hansen         : Spin unrestricted coupled pair/coupled cluster methods
   Benjamin Helmich-Paris : CASSCF linear response (MC-RPA)
   Lee Huntington         : MR-EOM, pCC
   Robert Izsak           : Overlap fitted RIJCOSX, COSX-SCS-MP3, EOM
   Christian Kollmar      : KDIIS, OOCD, Brueckner-CCSD(T), CCSD density
   Simone Kossmann        : Meta GGA functionals, TD-DFT gradient, OOMP2, MP2 Hessian
   Martin Krupicka        : AUTO-CI
   Lucas Lang             : DCDCAS
   Dagmar Lenk            : GEPOL surface, SMD
   Dimitrios Liakos       : Extrapolation schemes; Compound Job, initial MDCI parallelization
   Dimitrios Manganas     : Further ROCIS development; embedding schemes
   Dimitrios Pantazis     : SARC Basis sets
   Taras Petrenko         : DFT Hessian,TD-DFT gradient, ASA, ECA, R-Raman, ABS, FL, XAS/XES, NRVS
   Peter Pinski           : DLPNO-MP2, DLPNO-MP2 Gradient
   Christoph Reimann      : Effective Core Potentials
   Marius Retegan         : Local ZFS, SOC
   Christoph Riplinger    : Optimizer, TS searches, QM/MM, DLPNO-CCSD(T), (RO)-DLPNO pert. Triples
   Tobias Risthaus        : Range-separated hybrids, TD-DFT gradient, RPA, STAB
   Michael Roemelt        : Original ROCIS implementation
   Masaaki Saitow         : Open-shell DLPNO-CCSD energy and density
   Barbara Sandhoefer     : DKH picture change effects
   Avijit Sen             : IP-ROCIS
   Kantharuban Sivalingam : CASSCF convergence, NEVPT2, FIC-MRCI
   Bernardo de Souza      : ESD, SOC TD-DFT
   Georgi Stoychev        : AutoAux, RI-MP2 NMR
   Willem Van den Heuvel  : Paramagnetic NMR
   Boris Wezisla          : Elementary symmetry handling
   Frank Wennmohs         : Technical directorship


 We gratefully acknowledge several colleagues who have allowed us to
 interface, adapt or use parts of their codes:
   Stefan Grimme, W. Hujo, H. Kruse,             : VdW corrections, initial TS optimization,
                  C. Bannwarth                     DFT functionals, gCP, sTDA/sTD-DF
   Ed Valeev, F. Pavosevic, A. Kumar             : LibInt (2-el integral package), F12 methods
   Garnet Chan, S. Sharma, J. Yang, R. Olivares  : DMRG
   Ulf Ekstrom                                   : XCFun DFT Library
   Mihaly Kallay                                 : mrcc  (arbitrary order and MRCC methods)
   Andreas Klamt, Michael Diedenhofen            : otool_cosmo (COSMO solvation model)
   Jiri Pittner, Ondrej Demel                    : Mk-CCSD
   Frank Weinhold                                : gennbo (NPA and NBO analysis)
   Christopher J. Cramer and Donald G. Truhlar   : smd solvation model
   Lars Goerigk                                  : TD-DFT with DH, B97 family of functionals
   V. Asgeirsson, H. Jonsson                     : NEB implementation
   FAccTs GmbH                                   : IRC, NEB, NEB-TS, Multilevel, MM, QM/MM, CI optimization
   S Lehtola, MJT Oliveira, MAL Marques          : LibXC Library


 Your calculation uses the libint2 library for the computation of 2-el integrals
 For citations please refer to: http://libint.valeyev.net

 Your ORCA version has been built with support for libXC version: 4.2.3
 For citations please refer to: https://tddft.org/programs/libxc/

 This ORCA versions uses:
   CBLAS   interface :  Fast vector & matrix operations
   LAPACKE interface :  Fast linear algebra routines
   SCALAPACK package :  Parallel linear algebra routines


Your calculation utilizes the atom-pairwise dispersion correction
with the zero-damping scheme (D30)
Cite in your paper:
S.Grimme, J.Antony, S.Ehrlich and H.Krieg, J.Chem.Phys., 132, (2010), 154104 
   

XCFun DFT library Copyright 2009-2010 Ulf Ekstrom and contributors.
See http://admol.org/xcfun for more information. This is free soft-
ware; see the source code for copying conditions. There is ABSOLUTELY
NO WARRANTY; not even for MERCHANTABILITY or FITNESS FOR A PARTICULAR
PURPOSE. For details see the documentation. Scientific users of this 
library should cite U. Ekstrom, L. Visscher, R. Bast, A. J. Thorvald-
sen and K. Ruud; J.Chem.Theor.Comp. 2010, DOI: 10.1021/ct100117s
XCFun Version 0.99 
----- Orbital basis set information -----
Your calculation utilizes the basis: def2-TZVP
   F. Weigend and R. Ahlrichs, Phys. Chem. Chem. Phys. 7, 3297 (2005).

----- AuxJ basis set information -----
Your calculation utilizes the auxiliary basis: def2/J
   F. Weigend, Phys. Chem. Chem. Phys. 8, 1057 (2006).

================================================================================
                                        WARNINGS
                       Please study these warnings very carefully!
================================================================================


WARNING: Geometry Optimization
  ===> : Switching off AutoStart
         For restart on a previous wavefunction, please use MOREAD

INFO   : the flag for use of LIBINT has been found!

================================================================================
                                       INPUT FILE
================================================================================
NAME = Liben.inp
|  1> # avogadro generated ORCA input file 
|  2> # Basic Mode
|  3> # 
|  4> ! wB97X-D3 OPT def2-TZVP def2/J CPCM
|  5> %cpcm
|  6>   epsilon 3
|  7> end
|  8> %pal
|  9>  nprocs 4
| 10> end
| 11> 
| 12> * xyz 0 1
| 13>    C        1.91283        6.21445        0.85304
| 14>    C        0.52806        6.17930        1.00804
| 15>    C        2.61408        5.04321        0.56876
| 16>    H        2.44942        7.14903        0.95237
| 17>    C        1.94543        3.81198        0.43345
| 18>    H        3.68839        5.10250        0.45405
| 19>    C       -0.15771        4.96762        0.87810
| 20>    H       -0.00901        7.09359        1.22876
| 21>    C        0.54314        3.78342        0.59163
| 22>    H       -1.23395        4.95278        1.00073
| 23>    H       -0.01185        2.85866        0.49614
| 24>    C        2.74404        2.59096        0.12923
| 25>    O        3.95689        2.68160        0.00383
| 26>    O        2.18816        1.36899       -0.01760
| 27>   Li        1.89969       -0.14228       -0.24560
| 28> *
| 29> 
| 30> 
| 31>                          ****END OF INPUT****
================================================================================

                       *****************************
                       * Geometry Optimization Run *
                       *****************************

Geometry optimization settings:
Update method            Update   .... BFGS
Choice of coordinates    CoordSys .... Z-matrix Internals
Initial Hessian          InHess   .... Almoef's Model

Convergence Tolerances:
Energy Change            TolE     ....  5.0000e-06 Eh
Max. Gradient            TolMAXG  ....  3.0000e-04 Eh/bohr
RMS Gradient             TolRMSG  ....  1.0000e-04 Eh/bohr
Max. Displacement        TolMAXD  ....  4.0000e-03 bohr
RMS Displacement         TolRMSD  ....  2.0000e-03 bohr
Strict Convergence                ....  False
------------------------------------------------------------------------------
                        ORCA OPTIMIZATION COORDINATE SETUP
------------------------------------------------------------------------------

The optimization will be done in new redundant internal coordinates
Making redundant internal coordinates   ...  (new redundants) done
Evaluating the initial hessian          ...  (Almloef) done
Evaluating the coordinates              ...  done
Calculating the B-matrix                .... done
Calculating the G-matrix                .... done
Diagonalizing the G-matrix              .... done
Small eigenvalue found = 2.507e-02
The first mode is                       ....   28
The number of degrees of freedom        ....   39

    -----------------------------------------------------------------
                    Redundant Internal Coordinates


    -----------------------------------------------------------------
         Definition                    Initial Value    Approx d2E/dq
    -----------------------------------------------------------------
      1. B(C   1,C   0)                  1.3939         0.615997   
      2. B(C   2,C   0)                  1.3944         0.614763   
      3. B(H   3,C   0)                  1.0822         0.370518   
      4. B(C   4,C   2)                  1.4076         0.585685   
      5. B(H   5,C   2)                  1.0820         0.370782   
      6. B(C   6,C   1)                  1.3983         0.605961   
      7. B(H   7,C   1)                  1.0831         0.369356   
      8. B(C   8,C   6)                  1.4056         0.590094   
      9. B(C   8,C   4)                  1.4115         0.577406   
     10. B(H   9,C   6)                  1.0833         0.369066   
     11. B(H  10,C   8)                  1.0827         0.369841   
     12. B(C  11,C   4)                  1.4904         0.432112   
     13. B(O  12,C  11)                  1.2227         1.034723   
     14. B(O  13,C  11)                  1.3505         0.647055   
     15. B(Li 14,O  13)                  1.5554         1.479436   
     16. A(C   2,C   0,H   3)          119.6513         0.354109   
     17. A(C   1,C   0,H   3)          120.2751         0.354229   
     18. A(C   1,C   0,C   2)          120.0735         0.432900   
     19. A(C   0,C   1,C   6)          119.9166         0.431779   
     20. A(C   6,C   1,H   7)          120.4790         0.353057   
     21. A(C   0,C   1,H   7)          119.6043         0.354040   
     22. A(C   0,C   2,C   4)          121.0253         0.428994   
     23. A(C   4,C   2,H   5)          120.6221         0.351259   
     24. A(C   0,C   2,H   5)          118.3526         0.354151   
     25. A(C   2,C   4,C   8)          118.6113         0.424204   
     26. A(C   8,C   4,C  11)          122.5923         0.401908   
     27. A(C   2,C   4,C  11)          118.7964         0.402918   
     28. A(C   8,C   6,H   9)          120.4580         0.351429   
     29. A(C   1,C   6,H   9)          119.2468         0.353010   
     30. A(C   1,C   6,C   8)          120.2952         0.428462   
     31. A(C   4,C   8,H  10)          121.1075         0.350265   
     32. A(C   4,C   8,C   6)          120.0780         0.424773   
     33. A(C   6,C   8,H  10)          118.8145         0.351554   
     34. A(O  12,C  11,O  13)          117.6609         0.473830   
     35. A(C   4,C  11,O  13)          122.8842         0.407437   
     36. A(C   4,C  11,O  12)          119.4549         0.443136   
     37. A(C  11,O  13,Li 14)          166.2832         0.552574   
     38. D(H   7,C   1,C   0,C   2)    179.9995         0.026237   
     39. D(C   6,C   1,C   0,C   2)     -0.0003         0.026237   
     40. D(C   6,C   1,C   0,H   3)    179.9998         0.026237   
     41. D(H   7,C   1,C   0,H   3)     -0.0005         0.026237   
     42. D(C   4,C   2,C   0,C   1)      0.0001         0.026125   
     43. D(C   4,C   2,C   0,H   3)   -180.0000         0.026125   
     44. D(H   5,C   2,C   0,H   3)     -0.0002         0.026125   
     45. D(H   5,C   2,C   0,C   1)    179.9999         0.026125   
     46. D(C  11,C   4,C   2,H   5)      0.0002         0.023589   
     47. D(C  11,C   4,C   2,C   0)   -180.0000         0.023589   
     48. D(C   8,C   4,C   2,H   5)   -179.9999         0.023589   
     49. D(C   8,C   4,C   2,C   0)     -0.0001         0.023589   
     50. D(H   9,C   6,C   1,C   0)    179.9997         0.025341   
     51. D(C   8,C   6,C   1,H   7)   -179.9992         0.025341   
     52. D(C   8,C   6,C   1,C   0)      0.0006         0.025341   
     53. D(H   9,C   6,C   1,H   7)     -0.0000         0.025341   
     54. D(H  10,C   8,C   6,H   9)      0.0006         0.023963   
     55. D(C   4,C   8,C   6,H   9)   -179.9998         0.023963   
     56. D(C   4,C   8,C   6,C   1)     -0.0007         0.023963   
     57. D(H  10,C   8,C   4,C  11)     -0.0001         0.022896   
     58. D(H  10,C   8,C   4,C   2)   -180.0000         0.022896   
     59. D(H  10,C   8,C   6,C   1)    179.9997         0.023963   
     60. D(C   6,C   8,C   4,C  11)   -179.9997         0.022896   
     61. D(C   6,C   8,C   4,C   2)      0.0004         0.022896   
     62. D(O  13,C  11,C   4,C   8)      0.0004         0.012754   
     63. D(O  13,C  11,C   4,C   2)   -179.9998         0.012754   
     64. D(O  12,C  11,C   4,C   8)    180.0000         0.012754   
     65. D(O  12,C  11,C   4,C   2)     -0.0002         0.012754   
     66. D(Li 14,O  13,C  11,O  12)      0.0012         0.030920   
     67. D(Li 14,O  13,C  11,C   4)   -179.9992         0.030920   
    -----------------------------------------------------------------

Number of atoms                         .... 15
Number of degrees of freedom            .... 67

         *************************************************************
         *                GEOMETRY OPTIMIZATION CYCLE   1            *
         *************************************************************
---------------------------------
CARTESIAN COORDINATES (ANGSTROEM)
---------------------------------
  C      1.912830    6.214450    0.853040
  C      0.528060    6.179300    1.008040
  C      2.614080    5.043210    0.568760
  H      2.449420    7.149030    0.952370
  C      1.945430    3.811980    0.433450
  H      3.688390    5.102500    0.454050
  C     -0.157710    4.967620    0.878100
  H     -0.009010    7.093590    1.228760
  C      0.543140    3.783420    0.591630
  H     -1.233950    4.952780    1.000730
  H     -0.011850    2.858660    0.496140
  C      2.744040    2.590960    0.129230
  O      3.956890    2.681600    0.003830
  O      2.188160    1.368990   -0.017600
  Li     1.899690   -0.142280   -0.245600

----------------------------
CARTESIAN COORDINATES (A.U.)
----------------------------
  NO LB      ZA    FRAG     MASS         X           Y           Z
   0 C     6.0000    0    12.011    3.614725   11.743609    1.612012
   1 C     6.0000    0    12.011    0.997889   11.677185    1.904920
   2 C     6.0000    0    12.011    4.939895    9.530286    1.074801
   3 H     1.0000    0     1.008    4.628733   13.509709    1.799718
   4 C     6.0000    0    12.011    3.676330    7.203598    0.819102
   5 H     1.0000    0     1.008    6.970047    9.642328    0.858030
   6 C     6.0000    0    12.011   -0.298029    9.387441    1.659369
   7 H     1.0000    0     1.008   -0.017026   13.404942    2.322020
   8 C     6.0000    0    12.011    1.026386    7.149628    1.118019
   9 H     1.0000    0     1.008   -2.331828    9.359398    1.891106
  10 H     1.0000    0     1.008   -0.022393    5.402085    0.937569
  11 C     6.0000    0    12.011    5.185484    4.896205    0.244209
  12 O     8.0000    0    15.999    7.477438    5.067490    0.007238
  13 O     8.0000    0    15.999    4.135023    2.587016   -0.033259
  14 Li    3.0000    0     6.941    3.589894   -0.268870   -0.464117

--------------------------------
INTERNAL COORDINATES (ANGSTROEM)
--------------------------------
 C      0   0   0     0.000000000000     0.00000000     0.00000000
 C      1   0   0     1.393860995724     0.00000000     0.00000000
 C      1   2   0     1.394406618781   120.07354500     0.00000000
 H      1   2   3     1.082236135693   120.27514085   180.00003888
 C      3   1   2     1.407596863985   121.02532647     0.00000000
 H      3   1   2     1.082042357905   118.35259631   179.99987079
 C      2   1   3     1.398332334926   119.91663897     0.00000000
 H      2   1   3     1.083091735450   119.60431724   179.99948156
 C      7   2   1     1.405555201122   120.29520824     0.00000000
 H      7   2   1     1.083305534048   119.24679640   179.99972472
 H      9   7   2     1.082734176887   118.81451317   179.99973804
 C      5   3   1     1.490374979963   118.79639453   180.00003426
 O     12   5   3     1.222679799498   119.45487305     0.00000000
 O     12   5   3     1.350471141565   122.88424683   180.00023816
 Li    14  12   5     1.555357178850   166.28315301   180.00078774

---------------------------
INTERNAL COORDINATES (A.U.)
---------------------------
 C      0   0   0     0.000000000000     0.00000000     0.00000000
 C      1   0   0     2.634015550673     0.00000000     0.00000000
 C      1   2   0     2.635046628823   120.07354500     0.00000000
 H      1   2   3     2.045129908693   120.27514085   180.00003888
 C      3   1   2     2.659972579898   121.02532647     0.00000000
 H      3   1   2     2.044763721742   118.35259631   179.99987079
 C      2   1   3     2.642465157217   119.91663897     0.00000000
 H      2   1   3     2.046746757914   119.60431724   179.99948156
 C      7   2   1     2.656114396228   120.29520824     0.00000000
 H      7   2   1     2.047150778713   119.24679640   179.99972472
 H      9   7   2     2.046071070154   118.81451317   179.99973804
 C      5   3   1     2.816400548979   118.79639453   180.00003426
 O     12   5   3     2.310529970529   119.45487305     0.00000000
 O     12   5   3     2.552020609322   122.88424683   180.00023816
 Li    14  12   5     2.939199108455   166.28315301   180.00078774

---------------------
BASIS SET INFORMATION
---------------------
There are 4 groups of distinct atoms

 Group   1 Type C   : 11s6p2d1f contracted to 5s3p2d1f pattern {62111/411/11/1}
 Group   2 Type H   : 5s1p contracted to 3s1p pattern {311/1}
 Group   3 Type O   : 11s6p2d1f contracted to 5s3p2d1f pattern {62111/411/11/1}
 Group   4 Type Li  : 11s3p contracted to 5s3p pattern {62111/111}

Atom   0C    basis set group =>   1
Atom   1C    basis set group =>   1
Atom   2C    basis set group =>   1
Atom   3H    basis set group =>   2
Atom   4C    basis set group =>   1
Atom   5H    basis set group =>   2
Atom   6C    basis set group =>   1
Atom   7H    basis set group =>   2
Atom   8C    basis set group =>   1
Atom   9H    basis set group =>   2
Atom  10H    basis set group =>   2
Atom  11C    basis set group =>   1
Atom  12O    basis set group =>   3
Atom  13O    basis set group =>   3
Atom  14Li   basis set group =>   4
---------------------------------
AUXILIARY/J BASIS SET INFORMATION
---------------------------------
There are 4 groups of distinct atoms

 Group   1 Type C   : 12s5p4d2f1g contracted to 6s4p3d1f1g pattern {711111/2111/211/2/1}
 Group   2 Type H   : 5s2p1d contracted to 3s1p1d pattern {311/2/1}
 Group   3 Type O   : 12s5p4d2f1g contracted to 6s4p3d1f1g pattern {711111/2111/211/2/1}
 Group   4 Type Li  : 12s5p4d2f1g contracted to 6s4p3d1f1g pattern {711111/2111/211/2/1}

Atom   0C    basis set group =>   1
Atom   1C    basis set group =>   1
Atom   2C    basis set group =>   1
Atom   3H    basis set group =>   2
Atom   4C    basis set group =>   1
Atom   5H    basis set group =>   2
Atom   6C    basis set group =>   1
Atom   7H    basis set group =>   2
Atom   8C    basis set group =>   1
Atom   9H    basis set group =>   2
Atom  10H    basis set group =>   2
Atom  11C    basis set group =>   1
Atom  12O    basis set group =>   3
Atom  13O    basis set group =>   3
Atom  14Li   basis set group =>   4
--------------------------------------------------------------------------
[[21381,1],1]: A high-performance Open MPI point-to-point messaging module
was unable to find any relevant network interfaces:

Module: OpenFabrics (openib)
  Host: compute-1-12

Another transport will be used instead, although this may result in
lower performance.

NOTE: You can disable this warning by setting the MCA parameter
btl_base_warn_component_unused to 0.
--------------------------------------------------------------------------


           ************************************************************
           *        Program running with 4 parallel MPI-processes     *
           *              working on a common directory               *
           ************************************************************
------------------------------------------------------------------------------
                           ORCA GTO INTEGRAL CALCULATION
------------------------------------------------------------------------------

                         BASIS SET STATISTICS AND STARTUP INFO

 # of primitive gaussian shells          ...  224
 # of primitive gaussian functions       ...  474
 # of contracted shells                  ...  127
 # of contracted basis functions         ...  323
 Highest angular momentum                ...    3
 Maximum contraction depth               ...    6
 Integral package used                   ... LIBINT
 Integral threshhold            Thresh   ...  2.500e-11
 Primitive cut-off              TCut     ...  2.500e-12


------------------------------ INTEGRAL EVALUATION ----------------------------


 * One electron integrals 
 Pre-screening matrix                    ... done
 Shell pair data                         ... done (   0.003 sec)

[compute-1-12.local:63678] 3 more processes have sent help message help-mpi-btl-base.txt / btl:no-nics
[compute-1-12.local:63678] Set MCA parameter "orte_base_help_aggregate" to 0 to see all help / error messages
--------------------------------------------------------------------------
[[21483,1],0]: A high-performance Open MPI point-to-point messaging module
was unable to find any relevant network interfaces:

Module: OpenFabrics (openib)
  Host: compute-1-12

Another transport will be used instead, although this may result in
lower performance.

NOTE: You can disable this warning by setting the MCA parameter
btl_base_warn_component_unused to 0.
--------------------------------------------------------------------------


           ************************************************************
           *        Program running with 4 parallel MPI-processes     *
           *              working on a common directory               *
           ************************************************************
-------------------------------------------------------------------------------
                                 ORCA SCF
-------------------------------------------------------------------------------

------------
SCF SETTINGS
------------
Hamiltonian:
 Density Functional     Method          .... DFT(GTOs)
 Exchange Functional    Exchange        .... WB97X-D3
 Correlation Functional Correlation     .... WB97X-D3
 Gradients option       PostSCFGGA      .... off
 Hybrid DFT is turned on
   Fraction HF Exchange ScalHFX         ....  0.195728
   Scaling of DF-GGA-X  ScalDFX         ....  0.000000
   Scaling of DF-GGA-C  ScalDFC         ....  1.000000
   Scaling of DF-LDA-C  ScalLDAC        ....  1.000000
   Perturbative correction              ....  0.000000
   Density functional embedding theory  .... OFF
 Long-range corrected/Screened/Range-Separated Hybrid DFT is turned on
   Amount of maximum screened exact exchange              ....  0.804272
   Range separation parameter mu (erf(mu*r12)/r12)        ....  0.250000


General Settings:
 Integral files         IntName         .... Liben
 Hartree-Fock type      HFTyp           .... RHF
 Total Charge           Charge          ....    0
 Multiplicity           Mult            ....    1
 Number of Electrons    NEL             ....   66
 Basis Dimension        Dim             ....  323
 Nuclear Repulsion      ENuc            ....    417.1285574663 Eh

Convergence Acceleration:
 DIIS                   CNVDIIS         .... on
   Start iteration      DIISMaxIt       ....    12
   Startup error        DIISStart       ....  0.200000
   # of expansion vecs  DIISMaxEq       ....     5
   Bias factor          DIISBfac        ....   1.050
   Max. coefficient     DIISMaxC        ....  10.000
 Newton-Raphson         CNVNR           .... off
 SOSCF                  CNVSOSCF        .... on
   Start iteration      SOSCFMaxIt      ....   150
   Startup grad/error   SOSCFStart      ....  0.003300
 Level Shifting         CNVShift        .... on
   Level shift para.    LevelShift      ....    0.2500
   Turn off err/grad.   ShiftErr        ....    0.0010
 Zerner damping         CNVZerner       .... off
 Static damping         CNVDamp         .... on
   Fraction old density DampFac         ....    0.7000
   Max. Damping (<1)    DampMax         ....    0.9800
   Min. Damping (>=0)   DampMin         ....    0.0000
   Turn off err/grad.   DampErr         ....    0.1000
 Fernandez-Rico         CNVRico         .... off

SCF Procedure:
 Maximum # iterations   MaxIter         ....   125
 SCF integral mode      SCFMode         .... Direct
   Integral package                     .... LIBINT
 Reset frequency        DirectResetFreq ....    20
 Integral Threshold     Thresh          ....  2.500e-11 Eh
 Primitive CutOff       TCut            ....  2.500e-12 Eh

Convergence Tolerance:
 Convergence Check Mode ConvCheckMode   .... Total+1el-Energy
 Convergence forced     ConvForced      .... 0
 Energy Change          TolE            ....  1.000e-08 Eh
 1-El. energy change                    ....  1.000e-05 Eh
 Orbital Gradient       TolG            ....  1.000e-05
 Orbital Rotation angle TolX            ....  1.000e-05
 DIIS Error             TolErr          ....  5.000e-07


Diagonalization of the overlap matrix:
Smallest eigenvalue                        ... 9.228e-06
Time for diagonalization                   ...    0.034 sec
Threshold for overlap eigenvalues          ... 1.000e-08
Number of eigenvalues below threshold      ... 0
Time for construction of square roots      ...    0.015 sec
Total time needed                          ...    0.050 sec

-------------------
DFT GRID GENERATION
-------------------

General Integration Accuracy     IntAcc      ...  4.340
Radial Grid Type                 RadialGrid  ... Gauss-Chebyshev
Angular Grid (max. acc.)         AngularGrid ... Lebedev-110
Angular grid pruning method      GridPruning ... 3 (G Style)
Weight generation scheme         WeightScheme... Becke
Basis function cutoff            BFCut       ...    1.0000e-11
Integration weight cutoff        WCut        ...    1.0000e-14
Grids for H and He will be reduced by one unit

# of grid points (after initial pruning)     ...  20634 (   0.0 sec)
# of grid points (after weights+screening)   ...  19209 (   0.0 sec)
nearest neighbour list constructed           ...    0.0 sec
Grid point re-assignment to atoms done       ...    0.0 sec
Grid point division into batches done        ...    0.0 sec
Reduced shell lists constructed in    0.1 sec

Total number of grid points                  ...    19209
Total number of batches                      ...      307
Average number of points per batch           ...       62
Average number of grid points per atom       ...     1281
Average number of shells per batch           ...    86.09 (67.79%)
Average number of basis functions per batch  ...   226.99 (70.27%)
Average number of large shells per batch     ...    70.23 (81.58%)
Average number of large basis fcns per batch ...   185.13 (81.56%)
Maximum spatial batch extension              ...  16.74, 15.57, 41.97 au
Average spatial batch extension              ...   0.69,  0.71,  1.17 au

Time for grid setup =    0.138 sec

------------------------------
INITIAL GUESS: MODEL POTENTIAL
------------------------------
Loading Hartree-Fock densities                     ... done
Calculating cut-offs                               ... done
Setting up the integral package                    ... done
Initializing the effective Hamiltonian             ... done
Starting the Coulomb interaction                   ... done (   0.1 sec)
Reading the grid                                   ... done
Mapping shells                                     ... done
Starting the XC term evaluation                    ... done (   0.2 sec)
  promolecular density results
     # of electrons  =     66.003939614
     EX              =    -55.279807001
     EC              =     -2.158375796
     EX+EC           =    -57.438182797
Transforming the Hamiltonian                       ... done (   0.0 sec)
Diagonalizing the Hamiltonian                      ... done (   0.0 sec)
Back transforming the eigenvectors                 ... done (   0.0 sec)
Now organizing SCF variables                       ... done
                      ------------------
                      INITIAL GUESS DONE (   0.6 sec)
                      ------------------

--------------------
CPCM SOLVATION MODEL
--------------------
CPCM parameters:
  Epsilon                                         ...       3.0000
  Refrac                                          ...       1.3300
  Rsolv                                           ...       1.3000
  Surface type                                    ...    GEPOL SES
  Epsilon function type                           ...         CPCM
Radii:
 Radius for C  used is    3.7795 Bohr (=   2.0000 Ang.)
 Radius for H  used is    2.4566 Bohr (=   1.3000 Ang.)
 Radius for O  used is    3.2503 Bohr (=   1.7200 Ang.)
 Radius for Li used is    2.6532 Bohr (=   1.4040 Ang.)
Calculating surface                               ...        done! (  0.0s)
GEPOL surface points                              ...          514
GEPOL Volume                                      ...    1015.6594
GEPOL Surface-area                                ...     580.7262
Calculating surface distance matrix               ...        done! (  0.0s)
Performing Cholesky decomposition & store         ...        done! (  0.0s)
Overall time for CPCM initialization              ...                 0.0s
--------------
SCF ITERATIONS
--------------
ITER       Energy         Delta-E        Max-DP      RMS-DP      [F,P]     Damp
               ***  Starting incremental Fock matrix formation  ***
[compute-1-12.local:63696] 3 more processes have sent help message help-mpi-btl-base.txt / btl:no-nics
[compute-1-12.local:63696] Set MCA parameter "orte_base_help_aggregate" to 0 to see all help / error messages
  0   -427.5380046495   0.000000000000 0.07795258  0.00117463  0.3766609 0.7000
  1   -427.6745262820  -0.136521632527 0.09419364  0.00103367  0.1838287 0.7000
                               ***Turning on DIIS***
  2   -427.7365224167  -0.061996134661 0.18666770  0.00215763  0.0676258 0.0000
  3   -427.8406249647  -0.104102548024 0.06124306  0.00055285  0.0909033 0.0000
  4   -427.8564048261  -0.015779861401 0.00948064  0.00014307  0.0092798 0.0000
  5   -427.8569194618  -0.000514635675 0.00194425  0.00004924  0.0035432 0.0000
                      *** Initiating the SOSCF procedure ***
                           *** Shutting down DIIS ***
                      *** Re-Reading the Fockian *** 
                      *** Removing any level shift *** 
ITER      Energy       Delta-E        Grad      Rot      Max-DP    RMS-DP
  6   -427.85696869  -0.0000492310  0.000614  0.000614  0.001412  0.000033
               *** Restarting incremental Fock matrix formation ***
  7   -427.85698372  -0.0000150312  0.000205  0.000481  0.000666  0.000012
  8   -427.85698509  -0.0000013705  0.000206  0.000449  0.000929  0.000009
  9   -427.85698604  -0.0000009500  0.000036  0.000108  0.000190  0.000003
 10   -427.85698607  -0.0000000286  0.000019  0.000033  0.000144  0.000001
 11   -427.85698610  -0.0000000220  0.000005  0.000016  0.000035  0.000000
 12   -427.85698610  -0.0000000019  0.000003  0.000009  0.000012  0.000000
                  ***Gradient check signals convergence***
              ***Rediagonalizing the Fockian in SOSCF/NRSCF***

               *****************************************************
               *                     SUCCESS                       *
               *           SCF CONVERGED AFTER  13 CYCLES          *
               *****************************************************

Setting up the final grid:

General Integration Accuracy     IntAcc      ...  4.670
Radial Grid Type                 RadialGrid  ... Gauss-Chebyshev
Angular Grid (max. acc.)         AngularGrid ... Lebedev-302
Angular grid pruning method      GridPruning ... 3 (G Style)
Weight generation scheme         WeightScheme... Becke
Basis function cutoff            BFCut       ...    1.0000e-11
Integration weight cutoff        WCut        ...    1.0000e-14
Grids for H and He will be reduced by one unit

# of grid points (after initial pruning)     ...  78754 (   0.0 sec)
# of grid points (after weights+screening)   ...  72233 (   0.1 sec)
nearest neighbour list constructed           ...    0.0 sec
Grid point re-assignment to atoms done       ...    0.0 sec
Grid point division into batches done        ...    0.4 sec
Reduced shell lists constructed in    0.7 sec

Total number of grid points                  ...    72233
Total number of batches                      ...     1136
Average number of points per batch           ...       63
Average number of grid points per atom       ...     4816
Average number of shells per batch           ...    80.19 (63.14%)
Average number of basis functions per batch  ...   210.64 (65.21%)
Average number of large shells per batch     ...    64.06 (79.88%)
Average number of large basis fcns per batch ...   166.90 (79.24%)
Maximum spatial batch extension              ...  16.66, 14.54, 28.28 au
Average spatial batch extension              ...   0.50,  0.49,  0.70 au

Final grid set up in    0.8 sec
Final integration                            ... done (   0.9 sec)
Change in XC energy                          ...    -0.000602206
Integrated number of electrons               ...    65.999983857
Previous integrated no of electrons          ...    66.005633539

----------------
TOTAL SCF ENERGY
----------------

Total Energy       :         -427.85758830 Eh          -11642.59688 eV

Components:
Nuclear Repulsion  :          417.12855747 Eh           11350.64510 eV
Electronic Energy  :         -844.98614577 Eh          -22993.24198 eV
One Electron Energy:        -1410.69461910 Eh          -38386.95214 eV
Two Electron Energy:          565.70847333 Eh           15393.71016 eV
CPCM Dielectric    :           -0.04317673 Eh              -1.17490 eV

Virial components:
Potential Energy   :         -853.73429475 Eh          -23231.29122 eV
Kinetic Energy     :          425.87670645 Eh           11588.69434 eV
Virial Ratio       :            2.00465130


DFT components:
N(Alpha)           :       32.999991928349 electrons
N(Beta)            :       32.999991928349 electrons
N(Total)           :       65.999983856699 electrons
E(XC)              :      -40.801916268635 Eh       
DFET-embed. en.    :        0.000000000000 Eh       
CPCM Solvation Model Properties:
Surface-charge          :           -0.02726644
Charge-correction       :            0.00052247 Eh               0.01422 eV
Free-energy (cav+disp)  :            0.00385803 Eh               0.10498 eV
Corrected G(solv)       :         -427.85320781 Eh          -11642.47768 eV

---------------
SCF CONVERGENCE
---------------

  Last Energy change         ...   -1.6435e-09  Tolerance :   1.0000e-08
  Last MAX-Density change    ...    4.8535e-06  Tolerance :   1.0000e-07
  Last RMS-Density change    ...    8.7300e-08  Tolerance :   5.0000e-09
  Last Orbital Gradient      ...    3.5063e-07  Tolerance :   1.0000e-05
  Last Orbital Rotation      ...    1.0566e-06  Tolerance :   1.0000e-05

             **** THE GBW FILE WAS UPDATED (Liben.gbw) ****
             **** DENSITY FILE WAS UPDATED (Liben.scfp) ****
             **** ENERGY FILE WAS UPDATED (Liben.en.tmp) ****
             **** THE GBW FILE WAS UPDATED (Liben.gbw) ****
             **** DENSITY FILE WAS UPDATED (Liben.scfp) ****
----------------
ORBITAL ENERGIES
----------------

  NO   OCC          E(Eh)            E(eV) 
   0   2.0000     -19.177435      -521.8445 
   1   2.0000     -19.175740      -521.7984 
   2   2.0000     -10.375099      -282.3208 
   3   2.0000     -10.288237      -279.9572 
   4   2.0000     -10.284599      -279.8582 
   5   2.0000     -10.281686      -279.7789 
   6   2.0000     -10.280397      -279.7438 
   7   2.0000     -10.279176      -279.7106 
   8   2.0000     -10.277071      -279.6533 
   9   2.0000      -2.058451       -56.0133 
  10   2.0000      -1.148118       -31.2419 
  11   2.0000      -1.037430       -28.2299 
  12   2.0000      -0.972558       -26.4647 
  13   2.0000      -0.870323       -23.6827 
  14   2.0000      -0.860326       -23.4107 
  15   2.0000      -0.736080       -20.0298 
  16   2.0000      -0.710934       -19.3455 
  17   2.0000      -0.652028       -17.7426 
  18   2.0000      -0.604715       -16.4551 
  19   2.0000      -0.563431       -15.3317 
  20   2.0000      -0.550107       -14.9692 
  21   2.0000      -0.534775       -14.5520 
  22   2.0000      -0.516025       -14.0417 
  23   2.0000      -0.514838       -14.0094 
  24   2.0000      -0.509934       -13.8760 
  25   2.0000      -0.462359       -12.5814 
  26   2.0000      -0.449448       -12.2301 
  27   2.0000      -0.433014       -11.7829 
  28   2.0000      -0.370271       -10.0756 
  29   2.0000      -0.361527        -9.8376 
  30   2.0000      -0.340586        -9.2678 
  31   2.0000      -0.337188        -9.1753 
  32   2.0000      -0.333965        -9.0876 
  33   0.0000       0.033132         0.9016 
  34   0.0000       0.039386         1.0718 
  35   0.0000       0.063381         1.7247 
  36   0.0000       0.126937         3.4541 
  37   0.0000       0.128409         3.4942 
  38   0.0000       0.141861         3.8602 
  39   0.0000       0.153356         4.1730 
  40   0.0000       0.162738         4.4283 
  41   0.0000       0.175580         4.7778 
  42   0.0000       0.191094         5.1999 
  43   0.0000       0.206909         5.6303 
  44   0.0000       0.212607         5.7853 
  45   0.0000       0.221842         6.0366 
  46   0.0000       0.232376         6.3233 
  47   0.0000       0.248459         6.7609 
  48   0.0000       0.270402         7.3580 
  49   0.0000       0.289591         7.8802 
  50   0.0000       0.292857         7.9690 
  51   0.0000       0.307023         8.3545 
  52   0.0000       0.308855         8.4044 
  53   0.0000       0.321785         8.7562 
  54   0.0000       0.330290         8.9877 
  55   0.0000       0.334162         9.0930 
  56   0.0000       0.338571         9.2130 
  57   0.0000       0.346466         9.4278 
  58   0.0000       0.360088         9.7985 
  59   0.0000       0.397219        10.8089 
  60   0.0000       0.398905        10.8548 
  61   0.0000       0.408520        11.1164 
  62   0.0000       0.416899        11.3444 
  63   0.0000       0.426358        11.6018 
  64   0.0000       0.445956        12.1351 
  65   0.0000       0.451331        12.2813 
  66   0.0000       0.458858        12.4862 
  67   0.0000       0.483763        13.1639 
  68   0.0000       0.491621        13.3777 
  69   0.0000       0.497507        13.5379 
  70   0.0000       0.507152        13.8003 
  71   0.0000       0.507738        13.8163 
  72   0.0000       0.526992        14.3402 
  73   0.0000       0.539520        14.6811 
  74   0.0000       0.547874        14.9084 
  75   0.0000       0.566936        15.4271 
  76   0.0000       0.583102        15.8670 
  77   0.0000       0.588477        16.0133 
  78   0.0000       0.591366        16.0919 
  79   0.0000       0.593632        16.1536 
  80   0.0000       0.602328        16.3902 
  81   0.0000       0.605340        16.4721 
  82   0.0000       0.631068        17.1722 
  83   0.0000       0.642216        17.4756 
  84   0.0000       0.657078        17.8800 
  85   0.0000       0.670139        18.2354 
  86   0.0000       0.728034        19.8108 
  87   0.0000       0.728197        19.8153 
  88   0.0000       0.744567        20.2607 
  89   0.0000       0.752520        20.4771 
  90   0.0000       0.776888        21.1402 
  91   0.0000       0.789862        21.4932 
  92   0.0000       0.819878        22.3100 
  93   0.0000       0.828683        22.5496 
  94   0.0000       0.835299        22.7296 
  95   0.0000       0.836067        22.7506 
  96   0.0000       0.846533        23.0353 
  97   0.0000       0.855462        23.2783 
  98   0.0000       0.870373        23.6840 
  99   0.0000       0.885537        24.0967 
 100   0.0000       0.893320        24.3085 
 101   0.0000       0.918904        25.0047 
 102   0.0000       0.937893        25.5214 
 103   0.0000       0.952660        25.9232 
 104   0.0000       0.957384        26.0518 
 105   0.0000       0.976531        26.5728 
 106   0.0000       0.984825        26.7984 
 107   0.0000       1.013443        27.5772 
 108   0.0000       1.028501        27.9869 
 109   0.0000       1.043439        28.3934 
 110   0.0000       1.070835        29.1389 
 111   0.0000       1.079717        29.3806 
 112   0.0000       1.100018        29.9330 
 113   0.0000       1.108066        30.1520 
 114   0.0000       1.156324        31.4652 
 115   0.0000       1.171219        31.8705 
 116   0.0000       1.201768        32.7018 
 117   0.0000       1.219738        33.1908 
 118   0.0000       1.250726        34.0340 
 119   0.0000       1.292702        35.1762 
 120   0.0000       1.313651        35.7462 
 121   0.0000       1.316339        35.8194 
 122   0.0000       1.317817        35.8596 
 123   0.0000       1.341163        36.4949 
 124   0.0000       1.345908        36.6240 
 125   0.0000       1.360390        37.0181 
 126   0.0000       1.365288        37.1514 
 127   0.0000       1.408120        38.3169 
 128   0.0000       1.475754        40.1573 
 129   0.0000       1.478910        40.2432 
 130   0.0000       1.498945        40.7884 
 131   0.0000       1.508255        41.0417 
 132   0.0000       1.550594        42.1938 
 133   0.0000       1.565241        42.5924 
 134   0.0000       1.574069        42.8326 
 135   0.0000       1.598260        43.4909 
 136   0.0000       1.610865        43.8339 
 137   0.0000       1.615982        43.9731 
 138   0.0000       1.645413        44.7740 
 139   0.0000       1.661031        45.1990 
 140   0.0000       1.663594        45.2687 
 141   0.0000       1.691531        46.0289 
 142   0.0000       1.708303        46.4853 
 143   0.0000       1.740897        47.3722 
 144   0.0000       1.749792        47.6143 
 145   0.0000       1.756141        47.7870 
 146   0.0000       1.794012        48.8175 
 147   0.0000       1.796235        48.8781 
 148   0.0000       1.805040        49.1176 
 149   0.0000       1.811842        49.3027 
 150   0.0000       1.823753        49.6268 
 151   0.0000       1.873692        50.9857 
 152   0.0000       1.945426        52.9377 
 153   0.0000       1.946315        52.9619 
 154   0.0000       1.964711        53.4625 
 155   0.0000       1.987498        54.0826 
 156   0.0000       2.005275        54.5663 
 157   0.0000       2.031530        55.2807 
 158   0.0000       2.074443        56.4485 
 159   0.0000       2.102492        57.2117 
 160   0.0000       2.120795        57.7098 
 161   0.0000       2.153768        58.6070 
 162   0.0000       2.169373        59.0316 
 163   0.0000       2.190689        59.6117 
 164   0.0000       2.191509        59.6340 
 165   0.0000       2.202464        59.9321 
 166   0.0000       2.219379        60.3924 
 167   0.0000       2.251249        61.2596 
 168   0.0000       2.280113        62.0450 
 169   0.0000       2.302579        62.6564 
 170   0.0000       2.339062        63.6491 
 171   0.0000       2.352197        64.0065 
 172   0.0000       2.405213        65.4492 
 173   0.0000       2.444814        66.5268 
 174   0.0000       2.454161        66.7811 
 175   0.0000       2.470299        67.2203 
 176   0.0000       2.485258        67.6273 
 177   0.0000       2.557376        69.5897 
 178   0.0000       2.568502        69.8925 
 179   0.0000       2.600139        70.7534 
 180   0.0000       2.632098        71.6230 
 181   0.0000       2.678887        72.8962 
 182   0.0000       2.681737        72.9738 
 183   0.0000       2.694329        73.3164 
 184   0.0000       2.731036        74.3153 
 185   0.0000       2.735806        74.4451 
 186   0.0000       2.741263        74.5936 
 187   0.0000       2.754840        74.9630 
 188   0.0000       2.769964        75.3746 
 189   0.0000       2.784672        75.7748 
 190   0.0000       2.790134        75.9234 
 191   0.0000       2.806937        76.3806 
 192   0.0000       2.821683        76.7819 
 193   0.0000       2.823030        76.8186 
 194   0.0000       2.851935        77.6051 
 195   0.0000       2.886551        78.5470 
 196   0.0000       2.887169        78.5639 
 197   0.0000       2.887968        78.5856 
 198   0.0000       2.933671        79.8293 
 199   0.0000       2.935495        79.8789 
 200   0.0000       2.940910        80.0262 
 201   0.0000       2.955157        80.4139 
 202   0.0000       2.966498        80.7225 
 203   0.0000       2.986133        81.2568 
 204   0.0000       3.028344        82.4054 
 205   0.0000       3.037023        82.6416 
 206   0.0000       3.050844        83.0177 
 207   0.0000       3.073217        83.6265 
 208   0.0000       3.088304        84.0370 
 209   0.0000       3.123529        84.9956 
 210   0.0000       3.139788        85.4380 
 211   0.0000       3.187327        86.7316 
 212   0.0000       3.220403        87.6316 
 213   0.0000       3.223321        87.7110 
 214   0.0000       3.232236        87.9536 
 215   0.0000       3.239777        88.1588 
 216   0.0000       3.252134        88.4951 
 217   0.0000       3.257767        88.6483 
 218   0.0000       3.263313        88.7993 
 219   0.0000       3.276551        89.1595 
 220   0.0000       3.294005        89.6344 
 221   0.0000       3.303950        89.9051 
 222   0.0000       3.334108        90.7257 
 223   0.0000       3.336006        90.7773 
 224   0.0000       3.389510        92.2332 
 225   0.0000       3.399050        92.4928 
 226   0.0000       3.423600        93.1609 
 227   0.0000       3.432999        93.4166 
 228   0.0000       3.435665        93.4892 
 229   0.0000       3.452406        93.9447 
 230   0.0000       3.456095        94.0451 
 231   0.0000       3.479890        94.6926 
 232   0.0000       3.484291        94.8124 
 233   0.0000       3.518246        95.7363 
 234   0.0000       3.521960        95.8374 
 235   0.0000       3.537165        96.2512 
 236   0.0000       3.565472        97.0214 
 237   0.0000       3.577189        97.3403 
 238   0.0000       3.578218        97.3683 
 239   0.0000       3.601134        97.9918 
 240   0.0000       3.640066        99.0512 
 241   0.0000       3.642234        99.1102 
 242   0.0000       3.705721       100.8378 
 243   0.0000       3.709538       100.9417 
 244   0.0000       3.721948       101.2793 
 245   0.0000       3.738234       101.7225 
 246   0.0000       3.797843       103.3446 
 247   0.0000       3.850905       104.7885 
 248   0.0000       3.888310       105.8063 
 249   0.0000       3.928385       106.8968 
 250   0.0000       3.948927       107.4558 
 251   0.0000       3.978770       108.2678 
 252   0.0000       4.036870       109.8488 
 253   0.0000       4.047716       110.1439 
 254   0.0000       4.072316       110.8133 
 255   0.0000       4.126918       112.2992 
 256   0.0000       4.157938       113.1433 
 257   0.0000       4.228687       115.0684 
 258   0.0000       4.263209       116.0078 
 259   0.0000       4.276750       116.3763 
 260   0.0000       4.296669       116.9183 
 261   0.0000       4.302878       117.0873 
 262   0.0000       4.307034       117.2003 
 263   0.0000       4.319275       117.5335 
 264   0.0000       4.333822       117.9293 
 265   0.0000       4.386185       119.3542 
 266   0.0000       4.414188       120.1162 
 267   0.0000       4.420971       120.3007 
 268   0.0000       4.526172       123.1634 
 269   0.0000       4.605107       125.3113 
 270   0.0000       4.645345       126.4063 
 271   0.0000       4.705595       128.0458 
 272   0.0000       4.716616       128.3457 
 273   0.0000       4.735728       128.8657 
 274   0.0000       4.833732       131.5325 
 275   0.0000       4.871373       132.5568 
 276   0.0000       4.957267       134.8941 
 277   0.0000       4.976482       135.4170 
 278   0.0000       5.032630       136.9448 
 279   0.0000       5.095006       138.6422 
 280   0.0000       5.266699       143.3142 
 281   0.0000       5.284431       143.7967 
 282   0.0000       5.293021       144.0304 
 283   0.0000       5.304662       144.3472 
 284   0.0000       5.306559       144.3988 
 285   0.0000       5.373751       146.2272 
 286   0.0000       5.376723       146.3081 
 287   0.0000       5.418921       147.4563 
 288   0.0000       5.446053       148.1946 
 289   0.0000       5.516440       150.1100 
 290   0.0000       5.625418       153.0754 
 291   0.0000       5.694770       154.9626 
 292   0.0000       5.697952       155.0492 
 293   0.0000       5.804900       157.9594 
 294   0.0000       5.906394       160.7211 
 295   0.0000       5.932541       161.4326 
 296   0.0000       6.054872       164.7614 
 297   0.0000       6.071375       165.2105 
 298   0.0000       6.136396       166.9798 
 299   0.0000       6.253808       170.1748 
 300   0.0000       6.428445       174.9269 
 301   0.0000       6.443136       175.3267 
 302   0.0000       6.487686       176.5389 
 303   0.0000       6.531759       177.7382 
 304   0.0000       6.593716       179.4241 
 305   0.0000       6.665383       181.3743 
 306   0.0000       6.876492       187.1189 
 307   0.0000       6.924478       188.4246 
 308   0.0000       6.945026       188.9838 
 309   0.0000       7.150442       194.5734 
 310   0.0000       7.270125       197.8302 
 311   0.0000       7.280709       198.1182 
 312   0.0000       7.321630       199.2317 
 313   0.0000      14.814264       403.1166 
 314   0.0000      22.165160       603.1447 
 315   0.0000      22.656406       616.5122 
 316   0.0000      22.695834       617.5851 
 317   0.0000      22.796969       620.3371 
 318   0.0000      22.880273       622.6039 
 319   0.0000      23.226684       632.0302 
 320   0.0000      23.507715       639.6774 
 321   0.0000      43.967877      1196.4268 
 322   0.0000      43.987509      1196.9610 

                    ********************************
                    * MULLIKEN POPULATION ANALYSIS *
                    ********************************

-----------------------
MULLIKEN ATOMIC CHARGES
-----------------------
   0 C :   -0.127132
   1 C :   -0.160490
   2 C :   -0.213620
   3 H :    0.154272
   4 C :    0.060035
   5 H :    0.163487
   6 C :   -0.122084
   7 H :    0.152815
   8 C :   -0.228057
   9 H :    0.152981
  10 H :    0.152317
  11 C :    0.439120
  12 O :   -0.473469
  13 O :   -0.802859
  14 Li:    0.852684
Sum of atomic charges:   -0.0000000

--------------------------------
MULLIKEN REDUCED ORBITAL CHARGES
--------------------------------
  0 C s       :     3.183013  s :     3.183013
      pz      :     0.967211  p :     2.850599
      px      :     0.924999
      py      :     0.958388
      dz2     :     0.006348  d :     0.086308
      dxz     :     0.017069
      dyz     :     0.008450
      dx2y2   :     0.025455
      dxy     :     0.028986
      f0      :     0.001278  f :     0.007212
      f+1     :     0.000701
      f-1     :     0.000841
      f+2     :     0.000872
      f-2     :     0.000435
      f+3     :     0.000994
      f-3     :     0.002090
  1 C s       :     3.208851  s :     3.208851
      pz      :     0.947848  p :     2.857246
      px      :     0.936756
      py      :     0.972642
      dz2     :     0.004605  d :     0.087163
      dxz     :     0.018070
      dyz     :     0.010164
      dx2y2   :     0.025116
      dxy     :     0.029207
      f0      :     0.001413  f :     0.007231
      f+1     :     0.000629
      f-1     :     0.000648
      f+2     :     0.000913
      f-2     :     0.000548
      f+3     :     0.000954
      f-3     :     0.002127
  2 C s       :     3.235299  s :     3.235299
      pz      :     0.928928  p :     2.877494
      px      :     1.013352
      py      :     0.935213
      dz2     :     0.005846  d :     0.093512
      dxz     :     0.006006
      dyz     :     0.021617
      dx2y2   :     0.035061
      dxy     :     0.024984
      f0      :     0.001266  f :     0.007314
      f+1     :     0.000684
      f-1     :     0.000809
      f+2     :     0.000382
      f-2     :     0.001025
      f+3     :     0.001009
      f-3     :     0.002139
  3 H s       :     0.824077  s :     0.824077
      pz      :     0.004571  p :     0.021651
      px      :     0.006044
      py      :     0.011036
  4 C s       :     3.151820  s :     3.151820
      pz      :     0.973507  p :     2.662997
      px      :     0.828116
      py      :     0.861374
      dz2     :     0.006801  d :     0.115368
      dxz     :     0.020471
      dyz     :     0.014611
      dx2y2   :     0.036491
      dxy     :     0.036995
      f0      :     0.001565  f :     0.009779
      f+1     :     0.000821
      f-1     :     0.000840
      f+2     :     0.001054
      f-2     :     0.000769
      f+3     :     0.001369
      f-3     :     0.003362
  5 H s       :     0.814002  s :     0.814002
      pz      :     0.004300  p :     0.022510
      px      :     0.014475
      py      :     0.003736
  6 C s       :     3.193370  s :     3.193370
      pz      :     0.972265  p :     2.836128
      px      :     0.961300
      py      :     0.902563
      dz2     :     0.006449  d :     0.085403
      dxz     :     0.005571
      dyz     :     0.020176
      dx2y2   :     0.031046
      dxy     :     0.022162
      f0      :     0.001288  f :     0.007183
      f+1     :     0.000696
      f-1     :     0.000791
      f+2     :     0.000327
      f-2     :     0.001008
      f+3     :     0.001024
      f-3     :     0.002049
  7 H s       :     0.825603  s :     0.825603
      pz      :     0.004748  p :     0.021582
      px      :     0.006051
      py      :     0.010782
  8 C s       :     3.241377  s :     3.241377
      pz      :     0.946386  p :     2.888031
      px      :     0.930971
      py      :     1.010674
      dz2     :     0.005637  d :     0.091450
      dxz     :     0.018071
      dyz     :     0.008909
      dx2y2   :     0.026863
      dxy     :     0.031970
      f0      :     0.001230  f :     0.007198
      f+1     :     0.000675
      f-1     :     0.000848
      f+2     :     0.000906
      f-2     :     0.000445
      f+3     :     0.001018
      f-3     :     0.002076
  9 H s       :     0.825219  s :     0.825219
      pz      :     0.004663  p :     0.021800
      px      :     0.013576
      py      :     0.003561
 10 H s       :     0.825623  s :     0.825623
      pz      :     0.004392  p :     0.022060
      px      :     0.006102
      py      :     0.011566
 11 C s       :     2.982666  s :     2.982666
      pz      :     0.736186  p :     2.332519
      px      :     0.806736
      py      :     0.789597
      dz2     :     0.007557  d :     0.219471
      dxz     :     0.055036
      dyz     :     0.033043
      dx2y2   :     0.049088
      dxy     :     0.074747
      f0      :     0.002551  f :     0.026224
      f+1     :     0.001586
      f-1     :     0.001257
      f+2     :     0.004098
      f-2     :     0.001735
      f+3     :     0.003696
      f-3     :     0.011301
 12 O s       :     3.816183  s :     3.816183
      pz      :     1.469719  p :     4.625985
      px      :     1.353318
      py      :     1.802948
      dz2     :     0.002857  d :     0.029442
      dxz     :     0.009866
      dyz     :     0.000256
      dx2y2   :     0.008715
      dxy     :     0.007749
      f0      :     0.000175  f :     0.001859
      f+1     :     0.000197
      f-1     :     0.000027
      f+2     :     0.000426
      f-2     :     0.000035
      f+3     :     0.000451
      f-3     :     0.000548
 13 O s       :     3.895309  s :     3.895309
      pz      :     1.712846  p :     4.889977
      px      :     1.813064
      py      :     1.364066
      dz2     :     0.001945  d :     0.015800
      dxz     :     0.000894
      dyz     :     0.002794
      dx2y2   :     0.005394
      dxy     :     0.004773
      f0      :     0.000138  f :     0.001773
      f+1     :     0.000067
      f-1     :     0.000271
      f+2     :     0.000170
      f-2     :     0.000176
      f+3     :     0.000495
      f-3     :     0.000456
 14 Lis       :     2.012843  s :     2.012843
      pz      :     0.030805  p :     0.134473
      px      :     0.039801
      py      :     0.063868


                     *******************************
                     * LOEWDIN POPULATION ANALYSIS *
                     *******************************

----------------------
LOEWDIN ATOMIC CHARGES
----------------------
   0 C :   -0.146320
   1 C :   -0.139272
   2 C :   -0.089713
   3 H :    0.150030
   4 C :   -0.129032
   5 H :    0.156199
   6 C :   -0.146803
   7 H :    0.149416
   8 C :   -0.096701
   9 H :    0.148105
  10 H :    0.152117
  11 C :   -0.491078
  12 O :    0.002049
  13 O :   -0.200381
  14 Li:    0.681383

-------------------------------
LOEWDIN REDUCED ORBITAL CHARGES
-------------------------------
  0 C s       :     2.766871  s :     2.766871
      pz      :     0.894676  p :     2.955362
      px      :     1.050767
      py      :     1.009919
      dz2     :     0.028948  d :     0.381610
      dxz     :     0.062297
      dyz     :     0.027370
      dx2y2   :     0.116485
      dxy     :     0.146510
      f0      :     0.003082  f :     0.042477
      f+1     :     0.003915
      f-1     :     0.003538
      f+2     :     0.006017
      f-2     :     0.003363
      f+3     :     0.007609
      f-3     :     0.014953
  1 C s       :     2.769675  s :     2.769675
      pz      :     0.874732  p :     2.941827
      px      :     1.053524
      py      :     1.013572
      dz2     :     0.024357  d :     0.385261
      dxz     :     0.063378
      dyz     :     0.034435
      dx2y2   :     0.114802
      dxy     :     0.148289
      f0      :     0.003262  f :     0.042509
      f+1     :     0.004096
      f-1     :     0.003034
      f+2     :     0.006306
      f-2     :     0.003146
      f+3     :     0.007445
      f-3     :     0.015220
  2 C s       :     2.762955  s :     2.762955
      pz      :     0.861094  p :     2.908931
      px      :     1.004198
      py      :     1.043639
      dz2     :     0.028540  d :     0.376172
      dxz     :     0.016688
      dyz     :     0.075807
      dx2y2   :     0.155291
      dxy     :     0.099846
      f0      :     0.003037  f :     0.041656
      f+1     :     0.003015
      f-1     :     0.004232
      f+2     :     0.002297
      f-2     :     0.007224
      f+3     :     0.007514
      f-3     :     0.014337
  3 H s       :     0.790759  s :     0.790759
      pz      :     0.013308  p :     0.059212
      px      :     0.016901
      py      :     0.029003
  4 C s       :     2.717455  s :     2.717455
      pz      :     0.870383  p :     2.882188
      px      :     1.022414
      py      :     0.989391
      dz2     :     0.035671  d :     0.476492
      dxz     :     0.071268
      dyz     :     0.053904
      dx2y2   :     0.147360
      dxy     :     0.168289
      f0      :     0.003780  f :     0.052897
      f+1     :     0.004477
      f-1     :     0.004038
      f+2     :     0.006718
      f-2     :     0.005008
      f+3     :     0.008991
      f-3     :     0.019885
  5 H s       :     0.782655  s :     0.782655
      pz      :     0.012690  p :     0.061146
      px      :     0.037438
      py      :     0.011018
  6 C s       :     2.770709  s :     2.770709
      pz      :     0.900223  p :     2.958405
      px      :     0.995590
      py      :     1.062591
      dz2     :     0.028097  d :     0.376402
      dxz     :     0.015903
      dyz     :     0.073458
      dx2y2   :     0.160523
      dxy     :     0.098421
      f0      :     0.003041  f :     0.041287
      f+1     :     0.003052
      f-1     :     0.004239
      f+2     :     0.002170
      f-2     :     0.006970
      f+3     :     0.007394
      f-3     :     0.014421
  7 H s       :     0.791562  s :     0.791562
      pz      :     0.013712  p :     0.059022
      px      :     0.016867
      py      :     0.028444
  8 C s       :     2.767127  s :     2.767127
      pz      :     0.874151  p :     2.918256
      px      :     1.029707
      py      :     1.014399
      dz2     :     0.028590  d :     0.370782
      dxz     :     0.062648
      dyz     :     0.028436
      dx2y2   :     0.111027
      dxy     :     0.140081
      f0      :     0.002917  f :     0.040536
      f+1     :     0.003766
      f-1     :     0.003440
      f+2     :     0.006091
      f-2     :     0.003255
      f+3     :     0.007328
      f-3     :     0.013740
  9 H s       :     0.792473  s :     0.792473
      pz      :     0.013555  p :     0.059422
      px      :     0.035014
      py      :     0.010854
 10 H s       :     0.787570  s :     0.787570
      pz      :     0.012970  p :     0.060314
      px      :     0.017159
      py      :     0.030185
 11 C s       :     2.755264  s :     2.755264
      pz      :     0.728636  p :     2.635219
      px      :     0.983079
      py      :     0.923504
      dz2     :     0.066270  d :     0.945303
      dxz     :     0.160202
      dyz     :     0.113892
      dx2y2   :     0.271461
      dxy     :     0.333478
      f0      :     0.008894  f :     0.155291
      f+1     :     0.011317
      f-1     :     0.008381
      f+2     :     0.026949
      f-2     :     0.009843
      f+3     :     0.025162
      f-3     :     0.064744
 12 O s       :     3.400831  s :     3.400831
      pz      :     1.380000  p :     4.526566
      px      :     1.497346
      py      :     1.649220
      dz2     :     0.007640  d :     0.064695
      dxz     :     0.013529
      dyz     :     0.000427
      dx2y2   :     0.023819
      dxy     :     0.019280
      f0      :     0.000432  f :     0.005860
      f+1     :     0.000880
      f-1     :     0.000123
      f+2     :     0.000783
      f-2     :     0.000099
      f+3     :     0.001701
      f-3     :     0.001842
 13 O s       :     3.416560  s :     3.416560
      pz      :     1.596698  p :     4.726923
      px      :     1.692323
      py      :     1.437902
      dz2     :     0.007334  d :     0.052977
      dxz     :     0.002100
      dyz     :     0.007693
      dx2y2   :     0.019142
      dxy     :     0.016707
      f0      :     0.000290  f :     0.003922
      f+1     :     0.000186
      f-1     :     0.000574
      f+2     :     0.000232
      f-2     :     0.000360
      f+3     :     0.001175
      f-3     :     0.001105
 14 Lis       :     2.043906  s :     2.043906
      pz      :     0.052479  p :     0.274711
      px      :     0.065879
      py      :     0.156352


                      *****************************
                      * MAYER POPULATION ANALYSIS *
                      *****************************

  NA   - Mulliken gross atomic population
  ZA   - Total nuclear charge
  QA   - Mulliken gross atomic charge
  VA   - Mayer's total valence
  BVA  - Mayer's bonded valence
  FA   - Mayer's free valence

  ATOM       NA         ZA         QA         VA         BVA        FA
  0 C      6.1271     6.0000    -0.1271     3.8596     3.8596     0.0000
  1 C      6.1605     6.0000    -0.1605     3.9037     3.9037    -0.0000
  2 C      6.2136     6.0000    -0.2136     3.9907     3.9907    -0.0000
  3 H      0.8457     1.0000     0.1543     0.9640     0.9640     0.0000
  4 C      5.9400     6.0000     0.0600     3.4885     3.4885    -0.0000
  5 H      0.8365     1.0000     0.1635     0.9921     0.9921    -0.0000
  6 C      6.1221     6.0000    -0.1221     3.8521     3.8521    -0.0000
  7 H      0.8472     1.0000     0.1528     0.9633     0.9633    -0.0000
  8 C      6.2281     6.0000    -0.2281     3.9668     3.9668    -0.0000
  9 H      0.8470     1.0000     0.1530     0.9639     0.9639    -0.0000
 10 H      0.8477     1.0000     0.1523     0.9802     0.9802    -0.0000
 11 C      5.5609     6.0000     0.4391     4.1944     4.1944    -0.0000
 12 O      8.4735     8.0000    -0.4735     2.0000     2.0000    -0.0000
 13 O      8.8029     8.0000    -0.8029     1.5973     1.5973    -0.0000
 14 Li     2.1473     3.0000     0.8527     0.2997     0.2997    -0.0000

  Mayer bond orders larger than 0.100000
B(  0-C ,  1-C ) :   1.3858 B(  0-C ,  2-C ) :   1.4199 B(  0-C ,  3-H ) :   0.9804 
B(  1-C ,  6-C ) :   1.3899 B(  1-C ,  7-H ) :   0.9769 B(  2-C ,  4-C ) :   1.3812 
B(  2-C ,  5-H ) :   0.9564 B(  4-C ,  8-C ) :   1.3640 B(  4-C , 11-C ) :   0.9260 
B(  4-C , 12-O ) :  -0.1192 B(  4-C , 13-O ) :  -0.1295 B(  6-C ,  8-C ) :   1.4075 
B(  6-C ,  9-H ) :   0.9831 B(  8-C , 10-H ) :   0.9663 B( 11-C , 12-O ) :   1.9278 
B( 11-C , 13-O ) :   1.3341 B( 13-O , 14-Li) :   0.2599 

-------
TIMINGS
-------

Total SCF time: 0 days 0 hours 6 min 5 sec 

Total time                  ....     365.840 sec
Sum of individual times     ....     365.278 sec  ( 99.8%)

Fock matrix formation       ....     363.075 sec  ( 99.2%)
  XC integration            ....       4.447 sec  (  1.2% of F)
    Basis function eval.    ....       0.971 sec  ( 21.8% of XC)
    Density eval.           ....       0.969 sec  ( 21.8% of XC)
    XC-Functional eval.     ....       0.426 sec  (  9.6% of XC)
    XC-Potential eval.      ....       1.826 sec  ( 41.0% of XC)
Diagonalization             ....       0.351 sec  (  0.1%)
Density matrix formation    ....       0.026 sec  (  0.0%)
Population analysis         ....       0.035 sec  (  0.0%)
Initial guess               ....       0.507 sec  (  0.1%)
Orbital Transformation      ....       0.000 sec  (  0.0%)
Orbital Orthonormalization  ....       0.000 sec  (  0.0%)
DIIS solution               ....       0.114 sec  (  0.0%)
SOSCF solution              ....       0.254 sec  (  0.1%)
Grid generation             ....       0.917 sec  (  0.3%)


-------------------------------------------------------------------------------
                          DFT DISPERSION CORRECTION                            
                                                                               
                              DFTD3 V3.1  Rev 1                                
                              USING zero damping                               
-------------------------------------------------------------------------------
The omegaB97X-D3 functional is recognized. Fit by Chai et al.
Active option DFTDOPT                   ...         3   

molecular C6(AA) [au] = 3471.794515 


            DFT-D V3
 parameters
 s6 scaling factor         :     1.0000 
 rs6 scaling factor        :     1.2810 
 s8 scaling factor         :     1.0000 
 rs8 scaling factor        :     1.0940 
 Damping factor alpha6     :    14.0000 
 Damping factor alpha8     :    16.0000 
 ad hoc parameters k1-k3   :    16.0000     1.3333    -4.0000 

 Edisp/kcal,au: -2.681164689859  -0.004272707449 
 E6   /kcal   :  -1.069799520 
 E8   /kcal   :  -1.611365170 
 % E8         :  60.099447673 

-------------------------   ----------------
Dispersion correction           -0.004272707
-------------------------   ----------------


-------------------------   --------------------
FINAL SINGLE POINT ENERGY      -427.861861011767
-------------------------   --------------------

--------------------------------------------------------------------------
[[20778,1],2]: A high-performance Open MPI point-to-point messaging module
was unable to find any relevant network interfaces:

Module: OpenFabrics (openib)
  Host: compute-1-12

Another transport will be used instead, although this may result in
lower performance.

NOTE: You can disable this warning by setting the MCA parameter
btl_base_warn_component_unused to 0.
--------------------------------------------------------------------------


           ************************************************************
           *        Program running with 4 parallel MPI-processes     *
           *              working on a common directory               *
           ************************************************************
------------------------------------------------------------------------------
                         ORCA SCF GRADIENT CALCULATION
------------------------------------------------------------------------------

Gradient of the Kohn-Sham DFT energy:
Kohn-Sham wavefunction type      ... RKS
Hartree-Fock exchange scaling    ...    0.196
Number of operators              ...    1
Number of atoms                  ...   15
Basis set dimensions             ...  323
Integral neglect threshold       ... 2.5e-11
Integral primitive cutoff        ... 2.5e-12

Nuclear repulsion gradient       ... done
One Electron Gradient            ... done
Pre-screening matrix             ... done
Starting the two electron gradient:
[compute-1-12.local:64017] 3 more processes have sent help message help-mpi-btl-base.txt / btl:no-nics
[compute-1-12.local:64017] Set MCA parameter "orte_base_help_aggregate" to 0 to see all help / error messages
Two electron gradient done
Exchange-correlation gradient    ... done
Dispersion correction            ... done

------------------
CARTESIAN GRADIENT
------------------

   1   C   :    0.004020182    0.010543920    0.001310244
   2   C   :   -0.002286572    0.008667894    0.001794259
   3   C   :    0.008850756    0.000024796   -0.001060205
   4   H   :   -0.000256512   -0.000457569   -0.000080917
   5   C   :    0.020098501   -0.009647968   -0.004077954
   6   H   :   -0.000081221    0.004617976    0.000838502
   7   C   :   -0.013083609    0.002484622    0.001976484
   8   H   :    0.001302644    0.000401335   -0.000076935
   9   C   :   -0.006551464   -0.015304706   -0.001840782
  10   H   :    0.000111802    0.001732570    0.000256754
  11   H   :   -0.003243193    0.001608609    0.000685178
  12   C   :   -0.004610105    0.067969219    0.012459183
  13   O   :   -0.004984350   -0.012665865   -0.001768914
  14   O   :   -0.006798912   -0.101281221   -0.016732114
  15   Li  :    0.007512054    0.041306388    0.006317218

Difference to translation invariance:
           :   -0.0000000000   -0.0000000000   -0.0000000000

Norm of the cartesian gradient     ...    0.1366737870
RMS gradient                       ...    0.0203741252
MAX gradient                       ...    0.1012812208

-------
TIMINGS
-------

Total SCF gradient time            ...      164.503 sec

One electron gradient       ....       0.206 sec  (  0.1%)
Prescreening matrices       ....       0.347 sec  (  0.2%)
Two electron gradient       ....     158.944 sec  ( 96.6%)
XC gradient                 ....       3.847 sec  (  2.3%)
CPCM gradient               ....       0.836 sec  (  0.5%)
   A-Matrix (El+Nuc)        ....       0.021 sec  (  0.0%)
   Potential                ....       0.815 sec  (  0.5%)
------------------------------------------------------------------------------
                         ORCA GEOMETRY RELAXATION STEP
------------------------------------------------------------------------------

Reading the OPT-File                    .... done
Getting information on internals        .... done
Copying old internal coords+grads       .... done
Making the new internal coordinates     .... (new redundants).... done
Validating the new internal coordinates .... (new redundants).... done
Calculating the B-matrix                .... done
Calculating the G,G- and P matrices     .... done
Transforming gradient to internals      .... done
Projecting the internal gradient        .... done
Number of atoms                         ....  15
Number of internal coordinates          ....  67
Current Energy                          ....  -427.861861012 Eh
Current gradient norm                   ....     0.136673787 Eh/bohr
Maximum allowed component of the step   ....  0.300
Current trust radius                    ....  0.300
Evaluating the initial hessian          ....  (Almloef) done
Projecting the Hessian                  .... done
Forming the augmented Hessian           .... done
Diagonalizing the augmented Hessian     .... done
Last element of RFO vector              ....  0.988929954
Lowest eigenvalues of augmented Hessian:
 -0.012824234  0.012754446  0.018672419  0.020039315  0.023323518
Length of the computed step             ....  0.150044099
The final length of the internal step   ....  0.150044099
Converting the step to cartesian space:
 Initial RMS(Int)=    0.0183308042
Transforming coordinates:
 Iter   0:  RMS(Cart)=    0.0733177494 RMS(Int)=    1.5350239592
 Iter   1:  RMS(Cart)=    0.0022308618 RMS(Int)=    0.0014366366
 Iter   2:  RMS(Cart)=    0.0001378577 RMS(Int)=    0.0000652473
 Iter   3:  RMS(Cart)=    0.0000094378 RMS(Int)=    0.0000067080
 Iter   4:  RMS(Cart)=    0.0000005468 RMS(Int)=    0.0000004432
 Iter   5:  RMS(Cart)=    0.0000000390 RMS(Int)=    0.0000000314
done
Storing new coordinates                 .... done

                                .--------------------.
          ----------------------|Geometry convergence|-------------------------
          Item                value                   Tolerance       Converged
          ---------------------------------------------------------------------
          RMS gradient        0.0111078449            0.0001000000      NO
          MAX gradient        0.0550784647            0.0003000000      NO
          RMS step            0.0183308042            0.0020000000      NO
          MAX step            0.0834674846            0.0040000000      NO
          ........................................................
          Max(Bonds)      0.0442      Max(Angles)    4.39
          Max(Dihed)        0.24      Max(Improp)    0.00
          ---------------------------------------------------------------------

The optimization has not yet converged - more geometry cycles are needed


    ---------------------------------------------------------------------------
                         Redundant Internal Coordinates
                            (Angstroem and degrees)

        Definition                    Value    dE/dq     Step     New-Value
    ----------------------------------------------------------------------------
     1. B(C   1,C   0)                1.3939  0.005538 -0.0044    1.3895   
     2. B(C   2,C   0)                1.3944  0.008925 -0.0073    1.3871   
     3. B(H   3,C   0)                1.0822 -0.000534  0.0007    1.0830   
     4. B(C   4,C   2)                1.4076  0.015550 -0.0138    1.3938   
     5. B(H   5,C   2)                1.0820  0.000078 -0.0001    1.0819   
     6. B(C   6,C   1)                1.3983  0.010971 -0.0093    1.3890   
     7. B(H   7,C   1)                1.0831 -0.000322  0.0004    1.0835   
     8. B(C   8,C   6)                1.4056  0.016894 -0.0150    1.3905   
     9. B(C   8,C   4)                1.4115  0.018417 -0.0168    1.3947   
    10. B(H   9,C   6)                1.0833 -0.000100  0.0001    1.0834   
    11. B(H  10,C   8)                1.0827  0.000233 -0.0003    1.0824   
    12. B(C  11,C   4)                1.4904 -0.000975  0.0012    1.4915   
    13. B(O  12,C  11)                1.2227 -0.005689  0.0029    1.2256   
    14. B(O  13,C  11)                1.3505  0.055078 -0.0442    1.3063   
    15. B(Li 14,O  13)                1.5554 -0.042463  0.0151    1.5704   
    16. A(C   2,C   0,H   3)          119.65 -0.000352    0.01    119.66   
    17. A(C   1,C   0,H   3)          120.28 -0.000373    0.01    120.29   
    18. A(C   1,C   0,C   2)          120.07  0.000724   -0.03    120.05   
    19. A(C   0,C   1,C   6)          119.92  0.001274   -0.12    119.80   
    20. A(C   6,C   1,H   7)          120.48  0.000696   -0.15    120.33   
    21. A(C   0,C   1,H   7)          119.60 -0.001971    0.27    119.87   
    22. A(C   0,C   2,C   4)          121.03  0.003103   -0.41    120.62   
    23. A(C   4,C   2,H   5)          120.62  0.003263   -0.55    120.07   
    24. A(C   0,C   2,H   5)          118.35 -0.006366    0.96    119.31   
    25. A(C   2,C   4,C   8)          118.61 -0.003696    0.44    119.05   
    26. A(C   8,C   4,C  11)          122.59  0.006051   -0.80    121.79   
    27. A(C   2,C   4,C  11)          118.80 -0.002355    0.36    119.16   
    28. A(C   8,C   6,H   9)          120.46  0.001247   -0.20    120.26   
    29. A(C   1,C   6,H   9)          119.25 -0.002298    0.36    119.60   
    30. A(C   1,C   6,C   8)          120.30  0.001051   -0.16    120.14   
    31. A(C   4,C   8,H  10)          121.11  0.004976   -0.73    120.38   
    32. A(C   4,C   8,C   6)          120.08 -0.002457    0.27    120.35   
    33. A(C   6,C   8,H  10)          118.81 -0.002519    0.46    119.27   
    34. A(O  12,C  11,O  13)          117.66 -0.031308    3.87    121.54   
    35. A(C   4,C  11,O  13)          122.88  0.033810   -4.39    118.49   
    36. A(C   4,C  11,O  12)          119.45 -0.002501    0.52    119.97   
    37. A(C  11,O  13,Li 14)          166.28  0.001014   -0.10    166.18   
    38. D(H   7,C   1,C   0,C   2)    180.00  0.000006   -0.01    179.99   
    39. D(C   6,C   1,C   0,C   2)     -0.00 -0.000000   -0.00     -0.00   
    40. D(C   6,C   1,C   0,H   3)    180.00  0.000004   -0.01    179.99   
    41. D(H   7,C   1,C   0,H   3)     -0.00  0.000010   -0.02     -0.02   
    42. D(C   4,C   2,C   0,C   1)      0.00 -0.000005    0.01      0.01   
    43. D(C   4,C   2,C   0,H   3)   -180.00 -0.000009    0.01   -179.99   
    44. D(H   5,C   2,C   0,H   3)     -0.00  0.000019   -0.03     -0.03   
    45. D(H   5,C   2,C   0,C   1)    180.00  0.000023   -0.03    179.97   
[...]
MULLIKEN REDUCED ORBITAL CHARGES
--------------------------------
  0 C s       :     3.180828  s :     3.180828
      pz      :     0.969602  p :     2.847876
      px      :     0.929624
      py      :     0.948650
      dz2     :     0.006787  d :     0.087945
      dxz     :     0.016035
      dyz     :     0.010092
      dx2y2   :     0.024153
      dxy     :     0.030877
      f0      :     0.001294  f :     0.007314
      f+1     :     0.000698
      f-1     :     0.000861
      f+2     :     0.000989
      f-2     :     0.000363
      f+3     :     0.001026
      f-3     :     0.002082
  1 C s       :     3.192107  s :     3.192107
      pz      :     0.950613  p :     2.865886
      px      :     0.935885
      py      :     0.979388
      dz2     :     0.004581  d :     0.088256
      dxz     :     0.019495
      dyz     :     0.009152
      dx2y2   :     0.026696
      dxy     :     0.028331
      f0      :     0.001430  f :     0.007337
      f+1     :     0.000681
      f-1     :     0.000641
      f+2     :     0.000784
      f-2     :     0.000706
      f+3     :     0.000936
      f-3     :     0.002159
  2 C s       :     3.237988  s :     3.237988
      pz      :     0.937713  p :     2.883320
      px      :     1.012226
      py      :     0.933381
      dz2     :     0.005617  d :     0.096259
      dxz     :     0.006201
      dyz     :     0.022101
      dx2y2   :     0.036750
      dxy     :     0.025590
      f0      :     0.001303  f :     0.007444
      f+1     :     0.000659
      f-1     :     0.000827
      f+2     :     0.000367
      f-2     :     0.001086
      f+3     :     0.000979
      f-3     :     0.002224
  3 H s       :     0.830167  s :     0.830167
      pz      :     0.004551  p :     0.021774
      px      :     0.006951
      py      :     0.010272
  4 C s       :     3.145553  s :     3.145553
      pz      :     0.965006  p :     2.629868
      px      :     0.837921
      py      :     0.826941
      dz2     :     0.007927  d :     0.120882
      dxz     :     0.021846
      dyz     :     0.016154
      dx2y2   :     0.036973
      dxy     :     0.037981
      f0      :     0.001619  f :     0.010267
      f+1     :     0.000803
      f-1     :     0.000913
      f+2     :     0.001005
      f-2     :     0.000949
      f+3     :     0.001383
      f-3     :     0.003593
  5 H s       :     0.819531  s :     0.819531
      pz      :     0.004351  p :     0.022407
      px      :     0.014123
      py      :     0.003934
  6 C s       :     3.183796  s :     3.183796
      pz      :     0.970146  p :     2.843225
      px      :     0.966959
      py      :     0.906120
      dz2     :     0.006587  d :     0.088288
      dxz     :     0.006149
      dyz     :     0.020512
      dx2y2   :     0.032084
      dxy     :     0.022956
      f0      :     0.001324  f :     0.007337
      f+1     :     0.000685
      f-1     :     0.000814
      f+2     :     0.000333
      f-2     :     0.001051
      f+3     :     0.001028
      f-3     :     0.002102
  7 H s       :     0.830162  s :     0.830162
      pz      :     0.004778  p :     0.021848
      px      :     0.005370
      py      :     0.011699
  8 C s       :     3.241932  s :     3.241932
      pz      :     0.936782  p :     2.879427
      px      :     0.943097
      py      :     0.999548
      dz2     :     0.005906  d :     0.096040
      dxz     :     0.016997
      dyz     :     0.010725
      dx2y2   :     0.027320
      dxy     :     0.035091
      f0      :     0.001263  f :     0.007450
      f+1     :     0.000651
      f-1     :     0.000891
      f+2     :     0.001029
      f-2     :     0.000395
      f+3     :     0.001072
      f-3     :     0.002148
  9 H s       :     0.827176  s :     0.827176
      pz      :     0.004631  p :     0.021720
      px      :     0.013488
      py      :     0.003601
 10 H s       :     0.822583  s :     0.822583
      pz      :     0.004270  p :     0.022390
      px      :     0.006622
      py      :     0.011498
 11 C s       :     3.037497  s :     3.037497
      pz      :     0.724141  p :     2.191379
      px      :     0.746764
      py      :     0.720474
      dz2     :     0.008088  d :     0.271193
      dxz     :     0.061833
      dyz     :     0.038237
      dx2y2   :     0.077778
      dxy     :     0.085257
      f0      :     0.002743  f :     0.025375
      f+1     :     0.001765
      f-1     :     0.001299
      f+2     :     0.002914
      f-2     :     0.002445
      f+3     :     0.003799
      f-3     :     0.010411
 12 O s       :     3.889841  s :     3.889841
      pz      :     1.592183  p :     4.742068
      px      :     1.330525
      py      :     1.819361
      dz2     :     0.002573  d :     0.025892
      dxz     :     0.008075
      dyz     :     0.000137
      dx2y2   :     0.008898
      dxy     :     0.006210
      f0      :     0.000172  f :     0.001524
      f+1     :     0.000202
      f-1     :     0.000041
      f+2     :     0.000320
      f-2     :     0.000018
      f+3     :     0.000392
      f-3     :     0.000377
 13 O s       :     3.895688  s :     3.895688
      pz      :     1.592634  p :     4.748985
      px      :     1.690177
      py      :     1.466173
      dz2     :     0.002582  d :     0.026418
      dxz     :     0.003815
      dyz     :     0.004569
      dx2y2   :     0.006602
      dxy     :     0.008849
      f0      :     0.000183  f :     0.001559
      f+1     :     0.000085
      f-1     :     0.000168
      f+2     :     0.000031
      f-2     :     0.000310
      f+3     :     0.000344
      f-3     :     0.000439
 14 Lis       :     2.060124  s :     2.060124
      pz      :     0.012278  p :     0.086076
      px      :     0.035914
      py      :     0.037884


                     *******************************
                     * LOEWDIN POPULATION ANALYSIS *
                     *******************************

----------------------
LOEWDIN ATOMIC CHARGES
----------------------
   0 C :   -0.147008
   1 C :   -0.139726
   2 C :   -0.098949
   3 H :    0.149804
   4 C :   -0.128224
   5 H :    0.155701
   6 C :   -0.147294
   7 H :    0.149705
   8 C :   -0.098656
   9 H :    0.150028
  10 H :    0.155601
  11 C :   -0.559670
  12 O :   -0.077340
  13 O :   -0.077904
  14 Li:    0.713932

-------------------------------
LOEWDIN REDUCED ORBITAL CHARGES
-------------------------------
  0 C s       :     2.762289  s :     2.762289
      pz      :     0.895626  p :     2.954282
      px      :     1.044287
      py      :     1.014369
      dz2     :     0.029909  d :     0.386873
      dxz     :     0.058182
      dyz     :     0.033279
      dx2y2   :     0.108178
      dxy     :     0.157325
      f0      :     0.003120  f :     0.043565
      f+1     :     0.003857
      f-1     :     0.003727
      f+2     :     0.006933
      f-2     :     0.002797
      f+3     :     0.008144
      f-3     :     0.014988
  1 C s       :     2.764219  s :     2.764219
      pz      :     0.875646  p :     2.941099
      px      :     1.059240
      py      :     1.006212
      dz2     :     0.024755  d :     0.390679
      dxz     :     0.069128
      dyz     :     0.030706
      dx2y2   :     0.127094
      dxy     :     0.138997
      f0      :     0.003340  f :     0.043730
      f+1     :     0.004371
      f-1     :     0.002871
      f+2     :     0.005399
      f-2     :     0.004369
      f+3     :     0.008034
      f-3     :     0.015346
  2 C s       :     2.755903  s :     2.755903
      pz      :     0.864806  p :     2.914320
      px      :     0.999448
      py      :     1.050066
      dz2     :     0.028715  d :     0.385081
      dxz     :     0.018179
      dyz     :     0.077550
      dx2y2   :     0.157882
      dxy     :     0.102756
      f0      :     0.003179  f :     0.043646
      f+1     :     0.003003
      f-1     :     0.004373
      f+2     :     0.002278
      f-2     :     0.007743
      f+3     :     0.008285
      f-3     :     0.014785
  3 H s       :     0.791421  s :     0.791421
      pz      :     0.013220  p :     0.058776
      px      :     0.018782
      py      :     0.026774
  4 C s       :     2.708482  s :     2.708482
      pz      :     0.864130  p :     2.878025
      px      :     1.034992
      py      :     0.978903
      dz2     :     0.036516  d :     0.486338
      dxz     :     0.074461
      dyz     :     0.053227
      dx2y2   :     0.157190
      dxy     :     0.164944
      f0      :     0.003906  f :     0.055379
      f+1     :     0.004604
      f-1     :     0.004057
      f+2     :     0.006403
      f-2     :     0.005709
      f+3     :     0.009910
      f-3     :     0.020789
  5 H s       :     0.783826  s :     0.783826
      pz      :     0.012890  p :     0.060473
      px      :     0.036126
      py      :     0.011458
  6 C s       :     2.762366  s :     2.762366
      pz      :     0.895010  p :     2.954465
      px      :     0.993383
      py      :     1.066071
      dz2     :     0.028566  d :     0.386897
      dxz     :     0.017784
      dyz     :     0.074818
      dx2y2   :     0.163691
      dxy     :     0.102038
      f0      :     0.003198  f :     0.043567
      f+1     :     0.003053
      f-1     :     0.004425
      f+2     :     0.002254
      f-2     :     0.007418
      f+3     :     0.008211
      f-3     :     0.015008
  7 H s       :     0.791639  s :     0.791639
      pz      :     0.013727  p :     0.058656
      px      :     0.015036
      py      :     0.029893
  8 C s       :     2.755919  s :     2.755919
      pz      :     0.865255  p :     2.913986
      px      :     1.029956
      py      :     1.018775
      dz2     :     0.030226  d :     0.385097
      dxz     :     0.059584
      dyz     :     0.034879
      dx2y2   :     0.109010
      dxy     :     0.151398
      f0      :     0.003103  f :     0.043654
      f+1     :     0.003779
      f-1     :     0.003712
      f+2     :     0.007262
      f-2     :     0.002818
      f+3     :     0.008188
      f-3     :     0.014792
  9 H s       :     0.791199  s :     0.791199
      pz      :     0.013447  p :     0.058773
      px      :     0.034443
      py      :     0.010882
 10 H s       :     0.783900  s :     0.783900
      pz      :     0.012651  p :     0.060499
      px      :     0.018077
      py      :     0.029771
 11 C s       :     2.736015  s :     2.736015
      pz      :     0.721749  p :     2.649279
      px      :     0.961668
      py      :     0.965863
      dz2     :     0.070580  d :     1.009377
      dxz     :     0.191022
      dyz     :     0.110807
      dx2y2   :     0.312582
      dxy     :     0.324386
      f0      :     0.009533  f :     0.164998
      f+1     :     0.012812
      f-1     :     0.007837
      f+2     :     0.021567
      f-2     :     0.017939
      f+3     :     0.026747
      f-3     :     0.068562
 12 O s       :     3.395579  s :     3.395579
      pz      :     1.485061  p :     4.615456
      px      :     1.479855
      py      :     1.650540
      dz2     :     0.007380  d :     0.061141
      dxz     :     0.012417
      dyz     :     0.000362
      dx2y2   :     0.023142
      dxy     :     0.017841
      f0      :     0.000393  f :     0.005163
      f+1     :     0.000799
      f-1     :     0.000103
      f+2     :     0.000690
      f-2     :     0.000076
      f+3     :     0.001432
      f-3     :     0.001671
 13 O s       :     3.395286  s :     3.395286
      pz      :     1.484792  p :     4.616470
      px      :     1.619313
      py      :     1.512366
      dz2     :     0.007334  d :     0.061061
      dxz     :     0.005367
      dyz     :     0.007368
      dx2y2   :     0.017990
      dxy     :     0.023000
      f0      :     0.000394  f :     0.005087
      f+1     :     0.000365
      f-1     :     0.000543
      f+2     :     0.000090
      f-2     :     0.000659
      f+3     :     0.001408
      f-3     :     0.001628
 14 Lis       :     2.079414  s :     2.079414
      pz      :     0.025952  p :     0.206654
      px      :     0.091584
      py      :     0.089118


                      *****************************
                      * MAYER POPULATION ANALYSIS *
                      *****************************

  NA   - Mulliken gross atomic population
  ZA   - Total nuclear charge
  QA   - Mulliken gross atomic charge
  VA   - Mayer's total valence
  BVA  - Mayer's bonded valence
  FA   - Mayer's free valence

  ATOM       NA         ZA         QA         VA         BVA        FA
  0 C      6.1240     6.0000    -0.1240     3.8592     3.8592    -0.0000
  1 C      6.1536     6.0000    -0.1536     3.9056     3.9056    -0.0000
  2 C      6.2250     6.0000    -0.2250     3.9816     3.9816    -0.0000
  3 H      0.8519     1.0000     0.1481     0.9664     0.9664    -0.0000
  4 C      5.9066     6.0000     0.0934     3.5647     3.5647    -0.0000
  5 H      0.8419     1.0000     0.1581     0.9916     0.9916    -0.0000
  6 C      6.1226     6.0000    -0.1226     3.8499     3.8499    -0.0000
  7 H      0.8520     1.0000     0.1480     0.9646     0.9646    -0.0000
  8 C      6.2248     6.0000    -0.2248     3.9811     3.9811    -0.0000
  9 H      0.8489     1.0000     0.1511     0.9653     0.9653    -0.0000
 10 H      0.8450     1.0000     0.1550     0.9930     0.9930    -0.0000
 11 C      5.5254     6.0000     0.4746     4.0953     4.0953    -0.0000
 12 O      8.6593     8.0000    -0.6593     1.7609     1.7609    -0.0000
 13 O      8.6726     8.0000    -0.6726     1.7493     1.7493    -0.0000
 14 Li     2.1462     3.0000     0.8538     0.2858     0.2858    -0.0000

  Mayer bond orders larger than 0.100000
B(  0-C ,  1-C ) :   1.3895 B(  0-C ,  2-C ) :   1.4165 B(  0-C ,  3-H ) :   0.9858 
B(  1-C ,  6-C ) :   1.3845 B(  1-C ,  7-H ) :   0.9806 B(  2-C ,  4-C ) :   1.3814 
B(  2-C ,  5-H ) :   0.9609 B(  4-C ,  8-C ) :   1.3827 B(  4-C , 11-C ) :   0.9717 
B(  4-C , 12-O ) :  -0.1124 B(  4-C , 13-O ) :  -0.1141 B(  6-C ,  8-C ) :   1.4144 
B(  6-C ,  9-H ) :   0.9854 B(  8-C , 10-H ) :   0.9628 B( 11-C , 12-O ) :   1.5801 
B( 11-C , 13-O ) :   1.5693 B( 12-O , 14-Li) :   0.1322 B( 13-O , 14-Li) :   0.1332 


-------
TIMINGS
-------

Total SCF time: 0 days 0 hours 2 min 31 sec 

Total time                  ....     151.707 sec
Sum of individual times     ....     151.116 sec  ( 99.6%)

Fock matrix formation       ....     149.844 sec  ( 98.8%)
  XC integration            ....       2.333 sec  (  1.6% of F)
    Basis function eval.    ....       0.524 sec  ( 22.5% of XC)
    Density eval.           ....       0.528 sec  ( 22.6% of XC)
    XC-Functional eval.     ....       0.236 sec  ( 10.1% of XC)
    XC-Potential eval.      ....       0.959 sec  ( 41.1% of XC)
Diagonalization             ....       0.052 sec  (  0.0%)
Density matrix formation    ....       0.009 sec  (  0.0%)
Population analysis         ....       0.035 sec  (  0.0%)
Initial guess               ....       0.046 sec  (  0.0%)
Orbital Transformation      ....       0.000 sec  (  0.0%)
Orbital Orthonormalization  ....       0.036 sec  (  0.0%)
DIIS solution               ....       0.013 sec  (  0.0%)
SOSCF solution              ....       0.199 sec  (  0.1%)
Grid generation             ....       0.919 sec  (  0.6%)


-------------------------------------------------------------------------------
                          DFT DISPERSION CORRECTION                            
                                                                               
                              DFTD3 V3.1  Rev 1                                
                              USING zero damping                               
-------------------------------------------------------------------------------
The omegaB97X-D3 functional is recognized. Fit by Chai et al.
Active option DFTDOPT                   ...         3   

molecular C6(AA) [au] = 3328.760101 


            DFT-D V3
 parameters
 s6 scaling factor         :     1.0000 
 rs6 scaling factor        :     1.2810 
 s8 scaling factor         :     1.0000 
 rs8 scaling factor        :     1.0940 
 Damping factor alpha6     :    14.0000 
 Damping factor alpha8     :    16.0000 
 ad hoc parameters k1-k3   :    16.0000     1.3333    -4.0000 

 Edisp/kcal,au: -2.406287291391  -0.003834662478 
 E6   /kcal   :  -1.010815705 
 E8   /kcal   :  -1.395471586 
 % E8         :  57.992725594 

-------------------------   ----------------
Dispersion correction           -0.003834662
-------------------------   ----------------


-------------------------   --------------------
FINAL SINGLE POINT ENERGY      -427.890354772525
-------------------------   --------------------

                                *** OPTIMIZATION RUN DONE ***

                            ***************************************
                            *     ORCA property calculations      *
                            ***************************************

                                    ---------------------
                                    Active property flags
                                    ---------------------
   (+) Dipole Moment


------------------------------------------------------------------------------
                       ORCA ELECTRIC PROPERTIES CALCULATION
------------------------------------------------------------------------------

Dipole Moment Calculation                       ... on
Quadrupole Moment Calculation                   ... off
Polarizability Calculation                      ... off
GBWName                                         ... Liben.gbw
Electron density file                           ... Liben.scfp
The origin for moment calculation is the CENTER OF MASS  = ( 3.352691,  7.069419  0.833931)

-------------
DIPOLE MOMENT
-------------
                                X             Y             Z
Electronic contribution:      5.79006     -12.31651      -2.80498
Nuclear contribution   :     -5.05092      10.73072       2.44205
                        -----------------------------------------
Total Dipole Moment    :      0.73913      -1.58579      -0.36293
                        -----------------------------------------
Magnitude (a.u.)       :      1.78683
Magnitude (Debye)      :      4.54177



--------------------
Rotational spectrum 
--------------------
 
Rotational constants in cm-1:     0.133090     0.033385     0.026691 
Rotational constants in MHz :  3989.924313  1000.853476   800.177355 

 Dipole components along the rotational axes: 
x,y,z [a.u.] :     1.786818    -0.006749     0.003855 
x,y,z [Debye]:     4.541729    -0.017154     0.009799 

 
--------------------------------------------------------------------------
[[36553,1],2]: A high-performance Open MPI point-to-point messaging module
was unable to find any relevant network interfaces:

Module: OpenFabrics (openib)
  Host: compute-1-12

Another transport will be used instead, although this may result in
lower performance.

NOTE: You can disable this warning by setting the MCA parameter
btl_base_warn_component_unused to 0.
--------------------------------------------------------------------------
[compute-1-12.local:09714] 3 more processes have sent help message help-mpi-btl-base.txt / btl:no-nics
[compute-1-12.local:09714] Set MCA parameter "orte_base_help_aggregate" to 0 to see all help / error messages

Timings for individual modules:

Sum of individual times         ...    11699.059 sec (= 194.984 min)
GTO integral calculation        ...       20.004 sec (=   0.333 min)   0.2 %
SCF iterations                  ...     7123.726 sec (= 118.729 min)  60.9 %
SCF Gradient evaluation         ...     4553.142 sec (=  75.886 min)  38.9 %
Geometry relaxation             ...        2.188 sec (=   0.036 min)   0.0 %
                             ****ORCA TERMINATED NORMALLY****
TOTAL RUN TIME: 0 days 3 hours 15 minutes 4 seconds 242 msec
