Warning: no access to tty (Bad file descriptor).
Thus no job control in this shell.

                                 *****************
                                 * O   R   C   A *
                                 *****************

           --- An Ab Initio, DFT and Semiempirical electronic structure package ---

                  #######################################################
                  #                        -***-                        #
                  #          Department of theory and spectroscopy      #
                  #               Directorship: Frank Neese             #
                  #        Max Planck Institute fuer Kohlenforschung    #
                  #                Kaiser Wilhelm Platz 1               #
                  #                 D-45470 Muelheim/Ruhr               #
                  #                      Germany                        #
                  #                                                     #
                  #                  All rights reserved                #
                  #                        -***-                        #
                  #######################################################


                         Program Version 4.2.1 -  RELEASE  -


 With contributions from (in alphabetic order):
   Daniel Aravena         : Magnetic Suceptibility
   Michael Atanasov       : Ab Initio Ligand Field Theory (pilot matlab implementation)
   Alexander A. Auer      : GIAO ZORA, VPT2
   Ute Becker             : Parallelization
   Giovanni Bistoni       : ED, misc. LED, open-shell LED, HFLD
   Martin Brehm           : Molecular dynamics
   Dmytro Bykov           : SCF Hessian
   Vijay G. Chilkuri      : MRCI spin determinant printing, contributions to CSF-ICE
   Dipayan Datta          : RHF DLPNO-CCSD density
   Achintya Kumar Dutta   : EOM-CC, STEOM-CC
   Dmitry Ganyushin       : Spin-Orbit,Spin-Spin,Magnetic field MRCI
   Miquel Garcia          : C-PCM Hessian, Gaussian charge scheme
   Yang Guo               : DLPNO-NEVPT2, CIM, IAO-localization
   Andreas Hansen         : Spin unrestricted coupled pair/coupled cluster methods
   Benjamin Helmich-Paris : CASSCF linear response (MC-RPA)
   Lee Huntington         : MR-EOM, pCC
   Robert Izsak           : Overlap fitted RIJCOSX, COSX-SCS-MP3, EOM
   Christian Kollmar      : KDIIS, OOCD, Brueckner-CCSD(T), CCSD density
   Simone Kossmann        : Meta GGA functionals, TD-DFT gradient, OOMP2, MP2 Hessian
   Martin Krupicka        : AUTO-CI
   Lucas Lang             : DCDCAS
   Dagmar Lenk            : GEPOL surface, SMD
   Dimitrios Liakos       : Extrapolation schemes; Compound Job, initial MDCI parallelization
   Dimitrios Manganas     : Further ROCIS development; embedding schemes
   Dimitrios Pantazis     : SARC Basis sets
   Taras Petrenko         : DFT Hessian,TD-DFT gradient, ASA, ECA, R-Raman, ABS, FL, XAS/XES, NRVS
   Peter Pinski           : DLPNO-MP2, DLPNO-MP2 Gradient
   Christoph Reimann      : Effective Core Potentials
   Marius Retegan         : Local ZFS, SOC
   Christoph Riplinger    : Optimizer, TS searches, QM/MM, DLPNO-CCSD(T), (RO)-DLPNO pert. Triples
   Tobias Risthaus        : Range-separated hybrids, TD-DFT gradient, RPA, STAB
   Michael Roemelt        : Original ROCIS implementation
   Masaaki Saitow         : Open-shell DLPNO-CCSD energy and density
   Barbara Sandhoefer     : DKH picture change effects
   Avijit Sen             : IP-ROCIS
   Kantharuban Sivalingam : CASSCF convergence, NEVPT2, FIC-MRCI
   Bernardo de Souza      : ESD, SOC TD-DFT
   Georgi Stoychev        : AutoAux, RI-MP2 NMR
   Willem Van den Heuvel  : Paramagnetic NMR
   Boris Wezisla          : Elementary symmetry handling
   Frank Wennmohs         : Technical directorship


 We gratefully acknowledge several colleagues who have allowed us to
 interface, adapt or use parts of their codes:
   Stefan Grimme, W. Hujo, H. Kruse,             : VdW corrections, initial TS optimization,
                  C. Bannwarth                     DFT functionals, gCP, sTDA/sTD-DF
   Ed Valeev, F. Pavosevic, A. Kumar             : LibInt (2-el integral package), F12 methods
   Garnet Chan, S. Sharma, J. Yang, R. Olivares  : DMRG
   Ulf Ekstrom                                   : XCFun DFT Library
   Mihaly Kallay                                 : mrcc  (arbitrary order and MRCC methods)
   Andreas Klamt, Michael Diedenhofen            : otool_cosmo (COSMO solvation model)
   Jiri Pittner, Ondrej Demel                    : Mk-CCSD
   Frank Weinhold                                : gennbo (NPA and NBO analysis)
   Christopher J. Cramer and Donald G. Truhlar   : smd solvation model
   Lars Goerigk                                  : TD-DFT with DH, B97 family of functionals
   V. Asgeirsson, H. Jonsson                     : NEB implementation
   FAccTs GmbH                                   : IRC, NEB, NEB-TS, Multilevel, MM, QM/MM, CI optimization
   S Lehtola, MJT Oliveira, MAL Marques          : LibXC Library


 Your calculation uses the libint2 library for the computation of 2-el integrals
 For citations please refer to: http://libint.valeyev.net

 Your ORCA version has been built with support for libXC version: 4.2.3
 For citations please refer to: https://tddft.org/programs/libxc/

 This ORCA versions uses:
   CBLAS   interface :  Fast vector & matrix operations
   LAPACKE interface :  Fast linear algebra routines
   SCALAPACK package :  Parallel linear algebra routines


Your calculation utilizes the atom-pairwise dispersion correction
with the zero-damping scheme (D30)
Cite in your paper:
S.Grimme, J.Antony, S.Ehrlich and H.Krieg, J.Chem.Phys., 132, (2010), 154104 
   

XCFun DFT library Copyright 2009-2010 Ulf Ekstrom and contributors.
See http://admol.org/xcfun for more information. This is free soft-
ware; see the source code for copying conditions. There is ABSOLUTELY
NO WARRANTY; not even for MERCHANTABILITY or FITNESS FOR A PARTICULAR
PURPOSE. For details see the documentation. Scientific users of this 
library should cite U. Ekstrom, L. Visscher, R. Bast, A. J. Thorvald-
sen and K. Ruud; J.Chem.Theor.Comp. 2010, DOI: 10.1021/ct100117s
XCFun Version 0.99 
----- Orbital basis set information -----
Your calculation utilizes the basis: def2-TZVP
   F. Weigend and R. Ahlrichs, Phys. Chem. Chem. Phys. 7, 3297 (2005).

----- AuxJ basis set information -----
Your calculation utilizes the auxiliary basis: def2/J
   F. Weigend, Phys. Chem. Chem. Phys. 8, 1057 (2006).

================================================================================
                                        WARNINGS
                       Please study these warnings very carefully!
================================================================================


WARNING: Geometry Optimization
  ===> : Switching off AutoStart
         For restart on a previous wavefunction, please use MOREAD

INFO   : the flag for use of LIBINT has been found!

================================================================================
                                       INPUT FILE
================================================================================
NAME = Crys_vi.inp
|  1> # avogadro generated ORCA input file 
|  2> # Basic Mode
|  3> # 
|  4> ! wB97X-D3 OPT def2-TZVP def2/J CPCM
|  5> %cpcm
|  6>   epsilon 3
|  7> end
|  8> %pal
|  9>  nprocs 4
| 10> end  
| 11> 
| 12> * xyz 0 1
| 13>    N       -7.15047        5.11524       -1.36334
| 14>    C       -6.97600        6.31366       -2.17504
| 15>    H       -5.94034        6.48271       -2.51481
| 16>    H       -7.24325        7.20833       -1.57314
| 17>    H       -7.64148        6.26927       -3.06321
| 18>    C       -8.48863        4.93395       -0.81381
| 19>    H       -8.73464        5.77525       -0.13166
| 20>    H       -8.63051        3.98411       -0.27176
| 21>    H       -9.22811        4.91873       -1.64274
| 22>    C       -6.07411        4.17556       -1.12126
| 23>    C       -6.11161        3.27236       -0.03402
| 24>    C       -4.94347        4.11495       -1.96814
| 25>    C       -5.07233        2.36758        0.19505
| 26>    H       -6.92453        3.25364        0.67326
| 27>    C       -3.90724        3.20741       -1.73493
| 28>    H       -4.84342        4.73979       -2.84073
| 29>    C       -3.94300        2.32557       -0.64089
| 30>    H       -5.14850        1.70414        1.04775
| 31>    H       -3.08621        3.18405       -2.43940
| 32>    C       -2.84727        1.31552       -0.38152
| 33>    C       -3.32418       -0.04329        0.08081
| 34>    C       -1.50622        1.61277       -0.55543
| 35>    C       -1.02054        3.00454       -0.81235
| 36>    C       -0.43807        0.56481       -0.50111
| 37>    C        0.27734        3.29318       -0.97627
| 38>    H       -1.69507        3.84870       -0.82741
| 39>    C        0.86222        0.84586       -0.67492
| 40>    H       -0.67875       -0.48050       -0.36820
| 41>    C        1.34744        2.24344       -0.92642
| 42>    H        0.52118        4.33723       -1.13714
| 43>    H        1.51884       -0.00795       -0.63188
| 44>    N        2.61851        2.55685       -1.09553
| 45>    C        3.02349        3.93959       -1.33619
| 46>    H        2.55839        4.31930       -2.27137
| 47>    H        4.12517        4.03443       -1.45773
| 48>    H        2.73468        4.58029       -0.47529
| 49>    C        3.71865        1.59330       -1.06191
| 50>    H        3.44500        0.54623       -0.88461
| 51>    H        4.42932        1.87369       -0.25513
| 52>    H        4.25844        1.61659       -2.03276
| 53>    C       -2.66075       -0.77026        1.08438
| 54>    C       -4.49863       -0.59632       -0.45826
| 55>    C       -3.13459       -2.01311        1.51184
| 56>    H       -1.78023       -0.36943        1.56921
| 57>    C       -4.97717       -1.83809       -0.03408
| 58>    H       -5.04791       -0.07146       -1.23019
| 59>    C       -4.30516       -2.58427        0.96135
| 60>    H       -2.57545       -2.49199        2.29914
| 61>    H       -5.86842       -2.19727       -0.52199
| 62>    N       -4.79856       -3.87271        1.40489
| 63>    C       -6.17936       -4.29554        1.20438
| 64>    H       -6.83046       -3.52190        0.76433
| 65>    H       -6.63411       -4.54594        2.18655
| 66>    H       -6.20852       -5.19782        0.55731
| 67>    C       -3.95053       -4.84419        2.08501
| 68>    H       -2.89049       -4.54778        2.15590
| 69>    H       -3.95684       -5.79944        1.51792
| 70>    H       -4.33837       -5.03410        3.10832
| 71>   Cl        3.12754       -0.53932        2.09016
| 72> *
| 73> 
| 74> 
| 75>                          ****END OF INPUT****
================================================================================

                       *****************************
                       * Geometry Optimization Run *
                       *****************************

Geometry optimization settings:
Update method            Update   .... BFGS
Choice of coordinates    CoordSys .... Z-matrix Internals
Initial Hessian          InHess   .... Almoef's Model

Convergence Tolerances:
Energy Change            TolE     ....  5.0000e-06 Eh
Max. Gradient            TolMAXG  ....  3.0000e-04 Eh/bohr
RMS Gradient             TolRMSG  ....  1.0000e-04 Eh/bohr
Max. Displacement        TolMAXD  ....  4.0000e-03 bohr
RMS Displacement         TolRMSD  ....  2.0000e-03 bohr
Strict Convergence                ....  False
------------------------------------------------------------------------------
                        ORCA OPTIMIZATION COORDINATE SETUP
------------------------------------------------------------------------------

The optimization will be done in new redundant internal coordinates
Making redundant internal coordinates   ...  (new redundants) done
Evaluating the initial hessian          ...  (Almloef) done
Evaluating the coordinates              ...  done
Calculating the B-matrix                .... done
Calculating the G-matrix                .... done
Diagonalizing the G-matrix              .... done
Small eigenvalue found = 1.153e-03
Small eigenvalue found = 1.192e-03
Small eigenvalue found = 5.751e-03
Small eigenvalue found = 8.855e-03
Small eigenvalue found = 1.332e-02
Small eigenvalue found = 1.542e-02
Small eigenvalue found = 1.598e-02
Small eigenvalue found = 1.656e-02
Small eigenvalue found = 1.709e-02
Small eigenvalue found = 2.500e-02
The first mode is                       ....  149
The number of degrees of freedom        ....  171

    -----------------------------------------------------------------
                    Redundant Internal Coordinates


    -----------------------------------------------------------------
         Definition                    Initial Value    Approx d2E/dq
    -----------------------------------------------------------------
      1. B(C   1,N   0)                  1.4579         0.436040   
      2. B(H   2,C   1)                  1.1030         0.343304   
      3. B(H   3,C   1)                  1.1109         0.333464   
      4. B(H   4,C   1)                  1.1107         0.333718   
      5. B(C   5,N   0)                  1.4579         0.436032   
      6. B(H   6,C   5)                  1.1107         0.333742   
      7. B(H   7,C   5)                  1.1028         0.343573   
      8. B(H   8,C   5)                  1.1109         0.333438   
      9. B(C   9,N   0)                  1.4492         0.450237   
     10. B(C  10,C   9)                  1.4140         0.572164   
     11. B(C  11,C   9)                  1.4139         0.572195   
     12. B(C  12,C  10)                  1.3969         0.609260   
     13. B(H  13,C  10)                  1.0777         0.376746   
     14. B(C  14,C  11)                  1.3971         0.608791   
     15. B(H  15,C  11)                  1.0779         0.376481   
     16. B(C  16,C  14)                  1.4056         0.589895   
     17. B(C  16,C  12)                  1.4057         0.589815   
     18. B(H  17,C  12)                  1.0831         0.369378   
     19. B(H  18,C  14)                  1.0821         0.370720   
     20. B(C  19,C  16)                  1.5126         0.398166   
     21. B(C  20,C  19)                  1.5125         0.398428   
     22. B(C  21,C  19)                  1.3846         0.637399   
     23. B(C  22,C  21)                  1.4963         0.422807   
     24. B(C  23,C  21)                  1.4974         0.421151   
     25. B(C  24,C  22)                  1.3397         0.751728   
     26. B(H  25,C  22)                  1.0807         0.372672   
     27. B(C  26,C  23)                  1.3416         0.746312   
     28. B(H  27,C  23)                  1.0809         0.372392   
     29. B(C  28,C  26)                  1.5006         0.416121   
     30. B(C  28,C  24)                  1.4999         0.417329   
     31. B(H  29,C  24)                  1.0841         0.367925   
     32. B(H  30,C  26)                  1.0780         0.376387   
     33. B(N  31,C  28)                  1.3200         0.723652   
     34. B(C  32,N  31)                  1.4608         0.431460   
     35. B(H  33,C  32)                  1.1113         0.332958   
     36. B(H  34,C  32)                  1.1124         0.331637   
     37. B(H  35,C  32)                  1.1113         0.332959   
     38. B(C  36,N  31)                  1.4628         0.428235   
     39. B(H  37,C  36)                  1.0967         0.351389   
     40. B(H  38,C  36)                  1.1111         0.333230   
     41. B(H  39,C  36)                  1.1111         0.333285   
     42. B(C  40,C  20)                  1.4056         0.589946   
     43. B(C  41,C  20)                  1.4056         0.589951   
     44. B(C  42,C  40)                  1.3971         0.608683   
     45. B(H  43,C  40)                  1.0821         0.370641   
     46. B(C  44,C  41)                  1.3968         0.609485   
     47. B(H  45,C  41)                  1.0831         0.369372   
     48. B(C  46,C  44)                  1.4140         0.572167   
     49. B(C  46,C  42)                  1.4140         0.571993   
     50. B(H  47,C  42)                  1.0779         0.376509   
     51. B(H  48,C  44)                  1.0777         0.376773   
     52. B(N  49,C  46)                  1.4492         0.450182   
     53. B(C  50,N  49)                  1.4579         0.435990   
     54. B(H  51,C  50)                  1.1028         0.343601   
     55. B(H  52,C  50)                  1.1109         0.333455   
     56. B(H  53,C  50)                  1.1107         0.333729   
     57. B(C  54,N  49)                  1.4579         0.436049   
     58. B(H  55,C  54)                  1.1030         0.343330   
     59. B(H  56,C  54)                  1.1109         0.333468   
     60. B(H  57,C  54)                  1.1107         0.333735   
     61. B(Cl 58,C  36)                  3.8514         0.000166   
     62. B(Cl 58,H  30)                  3.2062         0.000340   
     63. B(Cl 58,C  26)                  3.8335         0.000177   
     64. B(Cl 58,H  38)                  3.6080         0.000078   
     65. B(Cl 58,H  37)                  3.1825         0.000371   
     66. A(C   1,N   0,C   9)          122.4882         0.380526   
     67. A(C   5,N   0,C   9)          122.5563         0.380524   
     68. A(C   1,N   0,C   5)          114.9555         0.378418   
     69. A(H   3,C   1,H   4)          108.7415         0.283972   
     70. A(N   0,C   1,H   4)          109.9166         0.326568   
     71. A(N   0,C   1,H   2)          114.1956         0.328096   
     72. A(H   2,C   1,H   4)          108.8063         0.285260   
     73. A(H   2,C   1,H   3)          105.6254         0.285226   
     74. A(N   0,C   1,H   3)          109.3635         0.326527   
     75. A(H   6,C   5,H   7)          108.7855         0.285298   
     76. A(N   0,C   5,H   8)          109.3547         0.326522   
     77. A(N   0,C   5,H   6)          109.9139         0.326571   
     78. A(N   0,C   5,H   7)          114.2337         0.328137   
     79. A(H   6,C   5,H   8)          108.7359         0.283972   
     80. A(H   7,C   5,H   8)          105.6236         0.285257   
     81. A(N   0,C   9,C  11)          121.4437         0.401591   
     82. A(C  10,C   9,C  11)          117.0251         0.421753   
     83. A(N   0,C   9,C  10)          121.5298         0.401587   
     84. A(C   9,C  10,C  12)          121.3401         0.426514   
     85. A(C   9,C  10,H  13)          122.3944         0.350820   
     86. A(C  12,C  10,H  13)          116.2534         0.354570   
     87. A(C  14,C  11,H  15)          116.2863         0.354481   
     88. A(C   9,C  11,C  14)          121.3974         0.426459   
     89. A(C   9,C  11,H  15)          122.2927         0.350782   
     90. A(C  16,C  12,H  17)          120.4235         0.351451   
     91. A(C  10,C  12,H  17)          118.2650         0.353385   
     92. A(C  10,C  12,C  16)          121.3040         0.428843   
     93. A(C  16,C  14,H  18)          120.8283         0.351675   
     94. A(C  11,C  14,H  18)          117.9127         0.353556   
     95. A(C  11,C  14,C  16)          121.2375         0.428794   
     96. A(C  12,C  16,C  14)          117.6807         0.426368   
     97. A(C  14,C  16,C  19)          122.2718         0.397659   
     98. A(C  12,C  16,C  19)          119.9970         0.397649   
     99. A(C  20,C  19,C  21)          122.4581         0.403164   
    100. A(C  16,C  19,C  21)          122.4607         0.403117   
    101. A(C  16,C  19,C  20)          115.0812         0.371426   
    102. A(C  40,C  20,C  41)          117.6902         0.426392   
    103. A(C  19,C  20,C  41)          119.9802         0.397711   
    104. A(C  19,C  20,C  40)          122.2805         0.397711   
    105. A(C  22,C  21,C  23)          115.1924         0.378907   
    106. A(C  19,C  21,C  23)          122.4200         0.407133   
    107. A(C  19,C  21,C  22)          122.3876         0.407415   
    108. A(C  24,C  22,H  25)          115.7668         0.366821   
    109. A(C  21,C  22,H  25)          121.7607         0.332893   
    110. A(C  21,C  22,C  24)          122.4037         0.419530   
    111. A(C  26,C  23,H  27)          115.7432         0.366319   
    112. A(C  21,C  23,H  27)          121.4976         0.332635   
    113. A(C  21,C  23,C  26)          122.6879         0.418697   
    114. A(C  28,C  24,H  29)          121.2298         0.331469   
    115. A(C  22,C  24,H  29)          116.3304         0.366016   
    116. A(C  22,C  24,C  28)          122.4360         0.418556   
    117. A(H  30,C  26,Cl 58)           47.5501         0.133461   
    118. A(C  28,C  26,H  30)          123.1887         0.332561   
    119. A(C  23,C  26,H  30)          114.7884         0.366990   
    120. A(C  23,C  26,Cl 58)          113.8020         0.149021   
    121. A(C  23,C  26,C  28)          122.0183         0.417801   
    122. A(C  28,C  26,Cl 58)          105.4460         0.141588   
    123. A(C  24,C  28,N  31)          121.1032         0.413040   
    124. A(C  26,C  28,N  31)          123.6382         0.412828   
    125. A(C  24,C  28,C  26)          115.2586         0.377268   
    126. A(C  32,N  31,C  36)          114.7580         0.376550   
    127. A(C  28,N  31,C  36)          124.3912         0.412256   
    128. A(C  28,N  31,C  32)          120.8508         0.412806   
    129. A(H  34,C  32,H  35)          107.0290         0.283630   
    130. A(H  33,C  32,H  35)          110.2508         0.283805   
    131. A(N  31,C  32,H  35)          110.2456         0.325879   
    132. A(H  33,C  32,H  34)          107.0616         0.283630   
    133. A(N  31,C  32,H  34)          111.9168         0.325665   
    134. A(N  31,C  32,H  33)          110.2444         0.325878   
    135. A(H  39,C  36,Cl 58)          143.2561         0.131618   
    136. A(H  38,C  36,Cl 58)           69.1230         0.131616   
    137. A(H  37,C  36,Cl 58)           45.6288         0.132131   
    138. A(N  31,C  36,Cl 58)          105.5524         0.140723   
    139. A(H  38,C  36,H  39)          108.5686         0.283884   
    140. A(H  37,C  36,H  39)          106.4102         0.286239   
    141. A(N  31,C  36,H  39)          109.3590         0.325529   
    142. A(H  37,C  36,H  38)          106.4482         0.286231   
    143. A(N  31,C  36,H  38)          109.3592         0.325520   
    144. A(N  31,C  36,H  37)          116.4205         0.328378   
    145. A(C  42,C  40,H  43)          117.9299         0.353533   
    146. A(C  20,C  40,H  43)          120.8206         0.351667   
    147. A(C  20,C  40,C  42)          121.2284         0.428787   
    148. A(C  44,C  41,H  45)          118.2631         0.353406   
    149. A(C  20,C  41,H  45)          120.4252         0.351464   
    150. A(C  20,C  41,C  44)          121.3041         0.428889   
    151. A(C  46,C  42,H  47)          122.2984         0.350765   
    152. A(C  40,C  42,H  47)          116.2809         0.354475   
    153. A(C  40,C  42,C  46)          121.3975         0.426419   
    154. A(C  46,C  44,H  48)          122.4049         0.350825   
    155. A(C  41,C  44,H  48)          116.2415         0.354596   
    156. A(C  41,C  44,C  46)          121.3414         0.426543   
    157. A(C  44,C  46,N  49)          121.5224         0.401579   
    158. A(C  42,C  46,N  49)          121.4531         0.401558   
    159. A(C  42,C  46,C  44)          117.0232         0.421727   
    160. A(C  50,N  49,C  54)          114.9484         0.378413   
    161. A(C  46,N  49,C  54)          122.4907         0.380519   
    162. A(C  46,N  49,C  50)          122.5608         0.380510   
    163. A(H  52,C  50,H  53)          108.7360         0.283973   
    164. A(H  51,C  50,H  53)          108.7795         0.285300   
    165. A(N  49,C  50,H  53)          109.9124         0.326563   
    166. A(H  51,C  50,H  52)          105.6187         0.285263   
    167. A(N  49,C  50,H  52)          109.3576         0.326519   
    168. A(N  49,C  50,H  51)          114.2427         0.328136   
    169. A(H  56,C  54,H  57)          108.7416         0.283975   
    170. A(H  55,C  54,H  57)          108.8036         0.285266   
    171. A(N  49,C  54,H  57)          109.9148         0.326572   
    172. A(H  55,C  54,H  56)          105.6254         0.285230   
    173. A(N  49,C  54,H  56)          109.3623         0.326529   
    174. A(N  49,C  54,H  55)          114.2011         0.328101   
    175. A(C  26,Cl 58,C  36)           45.5965         0.098458   
    176. D(H   2,C   1,N   0,C   5)    175.1795         0.016211   
    177. D(H   2,C   1,N   0,C   9)     -4.8094         0.016211   
    178. D(H   4,C   1,N   0,C   5)    -62.2253         0.016211   
    179. D(H   4,C   1,N   0,C   9)    117.7858         0.016211   
    180. D(H   3,C   1,N   0,C   5)     57.0866         0.016211   
    181. D(H   3,C   1,N   0,C   9)   -122.9024         0.016211   
    182. D(H   7,C   5,N   0,C   9)     -4.7787         0.016210   
    183. D(H   6,C   5,N   0,C   9)    117.8146         0.016210   
    184. D(H   8,C   5,N   0,C   1)     57.1236         0.016210   
    185. D(H   6,C   5,N   0,C   1)    -62.1743         0.016210   
    186. D(H   7,C   5,N   0,C   1)    175.2324         0.016210   
    187. D(H   8,C   5,N   0,C   9)   -122.8875         0.016210   
    188. D(C  10,C   9,N   0,C   5)    -20.0200         0.015965   
    189. D(C  11,C   9,N   0,C   1)    -20.4865         0.015965   
    190. D(C  10,C   9,N   0,C   1)    159.9681         0.015965   
    191. D(C  11,C   9,N   0,C   5)    159.5254         0.015965   
    192. D(H  13,C  10,C   9,N   0)     -1.3577         0.022464   
    193. D(H  13,C  10,C   9,C  11)    179.0777         0.022464   
    194. D(C  12,C  10,C   9,N   0)    179.9526         0.022464   
    195. D(C  12,C  10,C   9,C  11)      0.3880         0.022464   
    196. D(H  15,C  11,C   9,C  10)    177.8214         0.022467   
    197. D(H  15,C  11,C   9,N   0)     -1.7436         0.022467   
    198. D(C  14,C  11,C   9,C  10)     -0.3449         0.022467   
    199. D(C  14,C  11,C   9,N   0)   -179.9100         0.022467   
    200. D(H  17,C  12,C  10,H  13)      0.7059         0.025633   
    201. D(H  17,C  12,C  10,C   9)    179.4723         0.025633   
    202. D(C  16,C  12,C  10,H  13)   -178.3023         0.025633   
    203. D(C  16,C  12,C  10,C   9)      0.4641         0.025633   
    204. D(C  16,C  14,C  11,H  15)   -178.8227         0.025591   
    205. D(H  18,C  14,C  11,C   9)    177.7733         0.025591   
    206. D(C  16,C  14,C  11,C   9)     -0.5514         0.025591   
    207. D(H  18,C  14,C  11,H  15)     -0.4979         0.025591   
    208. D(C  19,C  16,C  14,H  18)      0.5106         0.023946   
    209. D(C  19,C  16,C  14,C  11)    178.7867         0.023946   
    210. D(C  12,C  16,C  14,H  18)   -176.9035         0.023946   
    211. D(C  12,C  16,C  14,C  11)      1.3726         0.023946   
    212. D(C  19,C  16,C  12,H  17)      2.2075         0.023940   
    213. D(C  14,C  16,C  12,H  17)    179.6829         0.023940   
    214. D(C  19,C  16,C  12,C  10)   -178.8056         0.023940   
    215. D(C  14,C  16,C  12,C  10)     -1.3302         0.023940   
    216. D(C  21,C  19,C  16,C  14)     40.3545         0.010907   
    217. D(C  21,C  19,C  16,C  12)   -142.2896         0.010907   
    218. D(C  20,C  19,C  16,C  14)   -139.6041         0.010907   
    219. D(C  20,C  19,C  16,C  12)     37.7517         0.010907   
    220. D(C  41,C  20,C  19,C  21)   -142.1850         0.010920   
    221. D(C  41,C  20,C  19,C  16)     37.7737         0.010920   
    222. D(C  40,C  20,C  19,C  21)     40.4250         0.010920   
    223. D(C  40,C  20,C  19,C  16)   -139.6164         0.010920   
    224. D(C  23,C  21,C  19,C  20)      9.4297         0.028212   
    225. D(C  23,C  21,C  19,C  16)   -170.5259         0.028212   
    226. D(C  22,C  21,C  19,C  20)   -170.6233         0.028212   
    227. D(C  22,C  21,C  19,C  16)      9.4211         0.028212   
    228. D(H  25,C  22,C  21,C  23)   -177.1303         0.012228   
    229. D(H  25,C  22,C  21,C  19)      2.9191         0.012228   
    230. D(C  24,C  22,C  21,C  23)     -0.2756         0.012228   
    231. D(C  24,C  22,C  21,C  19)    179.7738         0.012228   
    232. D(H  27,C  23,C  21,C  22)   -177.0607         0.012136   
    233. D(H  27,C  23,C  21,C  19)      2.8899         0.012136   
    234. D(C  26,C  23,C  21,C  22)     -0.2633         0.012136   
    235. D(C  26,C  23,C  21,C  19)    179.6872         0.012136   
    236. D(H  29,C  24,C  22,C  21)   -178.7968         0.040318   
    237. D(C  28,C  24,C  22,H  25)    177.5289         0.040318   
    238. D(C  28,C  24,C  22,C  21)      0.4983         0.040318   
    239. D(H  29,C  24,C  22,H  25)     -1.7662         0.040318   
    240. D(Cl 58,C  26,C  23,H  27)    -54.2204         0.043191   
    241. D(Cl 58,C  26,C  23,C  21)    128.8111         0.043191   
    242. D(H  30,C  26,C  23,H  27)     -1.7268         0.043191   
    243. D(H  30,C  26,C  23,C  21)   -178.6953         0.043191   
    244. D(C  28,C  26,C  23,H  27)    177.5264         0.043191   
    245. D(C  28,C  26,C  23,C  21)      0.5579         0.043191   
    246. D(N  31,C  28,C  26,Cl 58)     47.8672         0.012811   
    247. D(N  31,C  28,C  26,C  23)    179.6726         0.012811   
    248. D(C  24,C  28,C  26,Cl 58)   -132.1354         0.012811   
    249. D(C  24,C  28,C  26,H  30)    178.8598         0.012811   
    250. D(C  24,C  28,C  26,C  23)     -0.3300         0.012811   
    251. D(N  31,C  28,C  24,H  29)     -0.9468         0.011926   
    252. D(N  31,C  28,C  24,C  22)    179.7921         0.011926   
    253. D(N  31,C  28,C  26,H  30)     -1.1376         0.012811   
    254. D(C  26,C  28,C  24,H  29)    179.0557         0.011926   
    255. D(C  26,C  28,C  24,C  22)     -0.2054         0.011926   
    256. D(C  36,N  31,C  28,C  26)      0.0302         0.043634   
    257. D(C  36,N  31,C  28,C  24)   -179.9671         0.043634   
    258. D(C  32,N  31,C  28,C  26)   -179.9600         0.043634   
    259. D(C  32,N  31,C  28,C  24)      0.0427         0.043634   
    260. D(H  35,C  32,N  31,C  36)   -118.9553         0.015871   
    261. D(H  35,C  32,N  31,C  28)     61.0359         0.015871   
    262. D(H  34,C  32,N  31,C  36)      0.0475         0.015871   
    263. D(H  34,C  32,N  31,C  28)   -179.9613         0.015871   
    264. D(H  33,C  32,N  31,C  36)    119.0905         0.015871   
    265. D(H  33,C  32,N  31,C  28)    -60.9184         0.015871   
    266. D(Cl 58,C  36,N  31,C  32)    132.3416         0.016753   
    267. D(Cl 58,C  36,N  31,C  28)    -47.6492         0.016753   
    268. D(H  39,C  36,N  31,C  32)    -59.3074         0.016753   
    269. D(H  39,C  36,N  31,C  28)    120.7018         0.016753   
    270. D(H  38,C  36,N  31,C  32)     59.4565         0.016753   
    271. D(H  38,C  36,N  31,C  28)   -120.5343         0.016753   
    272. D(H  37,C  36,N  31,C  32)   -179.9003         0.016753   
    273. D(H  37,C  36,N  31,C  28)      0.1089         0.016753   
    274. D(H  43,C  40,C  20,C  41)   -176.9272         0.023951   
    275. D(H  43,C  40,C  20,C  19)      0.5197         0.023951   
    276. D(C  42,C  40,C  20,C  41)      1.3686         0.023951   
    277. D(C  42,C  40,C  20,C  19)    178.8155         0.023951   
    278. D(H  45,C  41,C  20,C  40)    179.6936         0.023951   
    279. D(H  45,C  41,C  20,C  19)      2.1854         0.023951   
    280. D(C  44,C  41,C  20,C  40)     -1.3334         0.023951   
    281. D(C  44,C  41,C  20,C  19)   -178.8416         0.023951   
    282. D(H  47,C  42,C  40,H  43)     -0.4850         0.025582   
    283. D(H  47,C  42,C  40,C  20)   -178.8286         0.025582   
    284. D(C  46,C  42,C  40,H  43)    177.8015         0.025582   
    285. D(C  46,C  42,C  40,C  20)     -0.5420         0.025582   
    286. D(H  48,C  44,C  41,H  45)      0.7036         0.025653   
    287. D(H  48,C  44,C  41,C  20)   -178.2910         0.025653   
    288. D(C  46,C  44,C  41,H  45)    179.4637         0.025653   
    289. D(C  46,C  44,C  41,C  20)      0.4691         0.025653   
    290. D(N  49,C  46,C  44,H  48)     -1.3501         0.022464   
    291. D(N  49,C  46,C  44,C  41)    179.9670         0.022464   
    292. D(C  42,C  46,C  44,H  48)    179.0709         0.022464   
    293. D(C  42,C  46,C  44,C  41)      0.3881         0.022464   
    294. D(N  49,C  46,C  42,H  47)     -1.7490         0.022450   
    295. D(N  49,C  46,C  42,C  40)   -179.9314         0.022450   
    296. D(C  44,C  46,C  42,H  47)    177.8303         0.022450   
    297. D(C  44,C  46,C  42,C  40)     -0.3522         0.022450   
    298. D(C  54,N  49,C  46,C  44)    160.0073         0.015961   
    299. D(C  54,N  49,C  46,C  42)    -20.4324         0.015961   
    300. D(C  50,N  49,C  46,C  44)    -19.9636         0.015961   
    301. D(C  50,N  49,C  46,C  42)    159.5967         0.015961   
    302. D(H  51,C  50,N  49,C  46)     -4.7920         0.016207   
    303. D(H  53,C  50,N  49,C  54)    -62.1742         0.016207   
    304. D(H  53,C  50,N  49,C  46)    117.7987         0.016207   
    305. D(H  52,C  50,N  49,C  54)     57.1247         0.016207   
    306. D(H  52,C  50,N  49,C  46)   -122.9023         0.016207   
    307. D(H  51,C  50,N  49,C  54)    175.2351         0.016207   
    308. D(H  57,C  54,N  49,C  50)    -62.2240         0.016212   
    309. D(H  57,C  54,N  49,C  46)    117.8031         0.016212   
    310. D(H  56,C  54,N  49,C  50)     57.0862         0.016212   
    311. D(H  56,C  54,N  49,C  46)   -122.8868         0.016212   
    312. D(H  55,C  54,N  49,C  50)    175.1817         0.016212   
    313. D(H  55,C  54,N  49,C  46)     -4.7912         0.016212   
    314. D(C  26,Cl 58,C  36,H  39)   -119.4196         0.001500   
    315. D(C  26,Cl 58,C  36,H  38)    147.2080         0.001500   
    316. D(C  26,Cl 58,C  36,H  37)    -69.9415         0.001500   
    317. D(C  26,Cl 58,C  36,N  31)     42.0123         0.001500   
    318. D(C  36,Cl 58,C  26,H  30)     79.6746         0.001500   
    319. D(C  36,Cl 58,C  26,C  28)    -41.4511         0.001500   
    320. D(C  36,Cl 58,C  26,C  23)   -177.7597         0.001500   
    -----------------------------------------------------------------

Number of atoms                         .... 59
Number of degrees of freedom            .... 320

         *************************************************************
         *                GEOMETRY OPTIMIZATION CYCLE   1            *
         *************************************************************
---------------------------------
CARTESIAN COORDINATES (ANGSTROEM)
---------------------------------
  N     -7.150470    5.115240   -1.363340
  C     -6.976000    6.313660   -2.175040
  H     -5.940340    6.482710   -2.514810
  H     -7.243250    7.208330   -1.573140
  H     -7.641480    6.269270   -3.063210
  C     -8.488630    4.933950   -0.813810
  H     -8.734640    5.775250   -0.131660
  H     -8.630510    3.984110   -0.271760
  H     -9.228110    4.918730   -1.642740
  C     -6.074110    4.175560   -1.121260
  C     -6.111610    3.272360   -0.034020
  C     -4.943470    4.114950   -1.968140
  C     -5.072330    2.367580    0.195050
  H     -6.924530    3.253640    0.673260
  C     -3.907240    3.207410   -1.734930
  H     -4.843420    4.739790   -2.840730
  C     -3.943000    2.325570   -0.640890
  H     -5.148500    1.704140    1.047750
  H     -3.086210    3.184050   -2.439400
  C     -2.847270    1.315520   -0.381520
  C     -3.324180   -0.043290    0.080810
  C     -1.506220    1.612770   -0.555430
  C     -1.020540    3.004540   -0.812350
  C     -0.438070    0.564810   -0.501110
  C      0.277340    3.293180   -0.976270
  H     -1.695070    3.848700   -0.827410
  C      0.862220    0.845860   -0.674920
  H     -0.678750   -0.480500   -0.368200
  C      1.347440    2.243440   -0.926420
  H      0.521180    4.337230   -1.137140
  H      1.518840   -0.007950   -0.631880
  N      2.618510    2.556850   -1.095530
  C      3.023490    3.939590   -1.336190
  H      2.558390    4.319300   -2.271370
  H      4.125170    4.034430   -1.457730
  H      2.734680    4.580290   -0.475290
  C      3.718650    1.593300   -1.061910
  H      3.445000    0.546230   -0.884610
  H      4.429320    1.873690   -0.255130
  H      4.258440    1.616590   -2.032760
  C     -2.660750   -0.770260    1.084380
  C     -4.498630   -0.596320   -0.458260
  C     -3.134590   -2.013110    1.511840
  H     -1.780230   -0.369430    1.569210
  C     -4.977170   -1.838090   -0.034080
  H     -5.047910   -0.071460   -1.230190
  C     -4.305160   -2.584270    0.961350
  H     -2.575450   -2.491990    2.299140
  H     -5.868420   -2.197270   -0.521990
  N     -4.798560   -3.872710    1.404890
  C     -6.179360   -4.295540    1.204380
  H     -6.830460   -3.521900    0.764330
  H     -6.634110   -4.545940    2.186550
  H     -6.208520   -5.197820    0.557310
  C     -3.950530   -4.844190    2.085010
  H     -2.890490   -4.547780    2.155900
  H     -3.956840   -5.799440    1.517920
  H     -4.338370   -5.034100    3.108320
  Cl     3.127540   -0.539320    2.090160

----------------------------
CARTESIAN COORDINATES (A.U.)
----------------------------
  NO LB      ZA    FRAG     MASS         X           Y           Z
   0 N     7.0000    0    14.007  -13.512430    9.666403   -2.576339
   1 C     6.0000    0    12.011  -13.182730   11.931088   -4.110230
   2 H     1.0000    0     1.008  -11.225616   12.250547   -4.752302
   3 H     1.0000    0     1.008  -13.687759   13.621770   -2.972804
   4 H     1.0000    0     1.008  -14.440304   11.847203   -5.788628
   5 C     6.0000    0    12.011  -16.041186    9.323814   -1.537878
   6 H     1.0000    0     1.008  -16.506077   10.913641   -0.248801
   7 H     1.0000    0     1.008  -16.309300    7.528877   -0.513552
   8 H     1.0000    0     1.008  -17.438601    9.295053   -3.104329
   9 C     6.0000    0    12.011  -11.478404    7.890665   -2.118874
  10 C     6.0000    0    12.011  -11.549269    6.183864   -0.064288
  11 C     6.0000    0    12.011   -9.341804    7.776129   -3.719246
  12 C     6.0000    0    12.011   -9.585315    4.474078    0.368591
  13 H     1.0000    0     1.008  -13.085465    6.148489    1.272277
  14 C     6.0000    0    12.011   -7.383614    6.061126   -3.278543
  15 H     1.0000    0     1.008   -9.152737    8.956905   -5.368202
  16 C     6.0000    0    12.011   -7.451190    4.394690   -1.211107
  17 H     1.0000    0     1.008   -9.729255    3.220358    1.979961
  18 H     1.0000    0     1.008   -5.832092    6.016982   -4.609798
  19 C     6.0000    0    12.011   -5.380561    2.485973   -0.720968
  20 C     6.0000    0    12.011   -6.281790   -0.081806    0.152709
  21 C     6.0000    0    12.011   -2.846343    3.047694   -1.049611
  22 C     6.0000    0    12.011   -1.928541    5.677758   -1.535119
  23 C     6.0000    0    12.011   -0.827832    1.067336   -0.946961
  24 C     6.0000    0    12.011    0.524097    6.223208   -1.844883
  25 H     1.0000    0     1.008   -3.203218    7.272989   -1.563578
  26 C     6.0000    0    12.011    1.629360    1.598444   -1.275414
  27 H     1.0000    0     1.008   -1.282652   -0.908013   -0.695797
  28 C     6.0000    0    12.011    2.546293    4.239487   -1.750680
  29 H     1.0000    0     1.008    0.984887    8.196177   -2.148883
  30 H     1.0000    0     1.008    2.870192   -0.015023   -1.194080
  31 N     7.0000    0    14.007    4.948267    4.831746   -2.070252
  32 C     6.0000    0    12.011    5.713568    7.444746   -2.525033
  33 H     1.0000    0     1.008    4.834656    8.162294   -4.292267
  34 H     1.0000    0     1.008    7.795442    7.623968   -2.754710
  35 H     1.0000    0     1.008    5.167796    8.655494   -0.898168
  36 C     6.0000    0    12.011    7.027230    3.010901   -2.006719
  37 H     1.0000    0     1.008    6.510107    1.032225   -1.671671
  38 H     1.0000    0     1.008    8.370202    3.540761   -0.482126
  39 H     1.0000    0     1.008    8.047285    3.054912   -3.841360
  40 C     6.0000    0    12.011   -5.028089   -1.455580    2.049181
  41 C     6.0000    0    12.011   -8.501179   -1.126881   -0.865986
  42 C     6.0000    0    12.011   -5.923517   -3.804227    2.856964
  43 H     1.0000    0     1.008   -3.364147   -0.698122    2.965377
  44 C     6.0000    0    12.011   -9.405488   -3.473487   -0.064402
  45 H     1.0000    0     1.008   -9.539167   -0.135040   -2.324722
  46 C     6.0000    0    12.011   -8.135573   -4.883563    1.816688
  47 H     1.0000    0     1.008   -4.866895   -4.709179    4.344745
  48 H     1.0000    0     1.008  -11.089707   -4.152239   -0.986418
  49 N     7.0000    0    14.007   -9.067964   -7.318361    2.654857
  50 C     6.0000    0    12.011  -11.677298   -8.117394    2.275948
  51 H     1.0000    0     1.008  -12.907699   -6.655426    1.444374
  52 H     1.0000    0     1.008  -12.536651   -8.590582    4.131981
  53 H     1.0000    0     1.008  -11.732402   -9.822456    1.053163
  54 C     6.0000    0    12.011   -7.465420   -9.154192    3.940098
  55 H     1.0000    0     1.008   -5.462234   -8.594059    4.074061
  56 H     1.0000    0     1.008   -7.477344  -10.959353    2.868453
  57 H     1.0000    0     1.008   -8.198331   -9.513070    5.873874
  58 Cl   17.0000    0    35.453    5.910194   -1.019167    3.949830

--------------------------------
INTERNAL COORDINATES (ANGSTROEM)
--------------------------------
 N      0   0   0     0.000000000000     0.00000000     0.00000000
 C      1   0   0     1.457911920282     0.00000000     0.00000000
 H      2   1   0     1.103001899817   114.19558343     0.00000000
 H      2   1   3     1.110918800543   109.36346199   241.90706853
 H      2   1   3     1.110711506828   109.91656431   122.59524079
 C      1   2   3     1.457916825680   114.95547321   175.17950263
 H      6   1   2     1.110691330929   109.91385801   297.82568518
 H      6   1   2     1.102789264774   114.23373590   175.23241372
 H      6   1   2     1.110939811016   109.35471963    57.12361377
 C      1   2   3     1.449190145702   122.48820084   355.19057112
 C     10   1   2     1.413954492761   121.52979877   159.96811274
 C     10   1   2     1.413939926623   121.44367528   339.51353826
 C     11  10   1     1.396854620818   121.34013618   179.95262211
 H     11  10   1     1.077698642107   122.39437211   358.64234327
 C     12  10   1     1.397064196306   121.39742048   180.09001738
 H     12  10   1     1.077890688428   122.29271428   358.25637330
 C     15  12  10     1.405647212070   121.23752108   359.44856316
 H     13  11  10     1.083075155518   118.26499003   179.47229638
 H     15  12  10     1.082087765110   117.91267514   177.77332343
 C     17  15  12     1.512646036685   122.27180436   178.78665364
 C     20  17  15     1.512467121329   115.08122122   220.39589929
 C     20  17  15     1.384563957750   122.46069789    40.35454867
 C     22  20  17     1.496300999699   122.38756340     9.42110369
 C     22  20  17     1.497369442222   122.42001867   189.47408691
 C     23  22  20     1.339654922135   122.40372055   179.77379658
 H     23  22  20     1.080658887022   121.76070478     2.91910828
 C     24  22  20     1.341623308794   122.68787960   179.68721779
 H     24  22  20     1.080863047106   121.49758841     2.88987116
 C     25  23  22     1.499851025969   122.43599083     0.49827098
 H     25  23  22     1.084148285522   116.33035359   181.20321809
 H     27  24  22     1.077958154151   114.78843319   181.30469932
 N     29  25  23     1.320016274559   121.10323904   179.79212046
 C     32  29  25     1.460786070443   120.85079544     0.04267085
 H     33  32  29     1.111332230478   110.24441540   299.08163533
 H     33  32  29     1.112414230222   111.91681244   180.03871442
 H     33  32  29     1.111330966049   110.24559143    61.03590005
 C     32  29  25     1.462828399540   124.39122983   180.03294948
 H     37  32  29     1.096665490202   116.42046492     0.10891889
 H     37  32  29     1.111109521784   109.35920813   239.46570223
 H     37  32  29     1.111064980413   109.35900112   120.70182928
 C     21  20  17     1.405623523814   122.28045199   220.38362918
 C     21  20  17     1.405621374446   119.98018963    37.77369876
 C     41  21  20     1.397112207269   121.22839824   178.81549114
 H     41  21  20     1.082146149187   120.82059174     0.51970843
 C     42  21  20     1.396754071732   121.30406266   181.15844540
 H     42  21  20     1.083080081481   120.42517207     2.18544422
 C     45  42  21     1.413952940306   121.34144331     0.46914152
 H     43  41  21     1.077870532114   116.28085109   181.17144628
 H     45  42  21     1.077679452806   116.24149561   181.70899132
 N     47  45  42     1.449223559428   121.52236512   179.96704008
 C     50  47  45     1.457943108972   122.56082286   340.03643241
 H     51  50  47     1.102766549230   114.24270248   355.20802300
 H     51  50  47     1.110925574195   109.35763818   237.09767410
 H     51  50  47     1.110702070269   109.91237364   117.79868609
 C     50  47  45     1.457906542169   122.49074138   160.00733570
 H     55  50  47     1.102981904566   114.20111516   355.20877633
 H     55  50  47     1.110915589368   109.36227705   237.11321911
 H     55  50  47     1.110697541998   109.91479361   117.80308287
 Cl    38  37  32     3.182523559536   120.11123180   273.85500616

---------------------------
INTERNAL COORDINATES (A.U.)
---------------------------
 N      0   0   0     0.000000000000     0.00000000     0.00000000
 C      1   0   0     2.755054256712     0.00000000     0.00000000
 H      2   1   0     2.084371515849   114.19558343     0.00000000
 H      2   1   3     2.099332290051   109.36346199   241.90706853
 H      2   1   3     2.098940561700   109.91656431   122.59524079
 C      1   2   3     2.755063526570   114.95547321   175.17950263
 H      6   1   2     2.098902434776   109.91385801   297.82568518
 H      6   1   2     2.083969693851   114.23373590   175.23241372
 H      6   1   2     2.099371994090   109.35471963    57.12361377
 C      1   2   3     2.738572491354   122.48820084   355.19057112
 C     10   1   2     2.671986757146   121.52979877   159.96811274
 C     10   1   2     2.671959231135   121.44367528   339.51353826
 C     11  10   1     2.639672682248   121.34013618   179.95262211
 H     11  10   1     2.036555288482   122.39437211   358.64234327
 C     12  10   1     2.640068722525   121.39742048   180.09001738
 H     12  10   1     2.036918203433   122.29271428   358.25637330
 C     15  12  10     2.656288271722   121.23752108   359.44856316
 H     13  11  10     2.046715426383   118.26499003   179.47229638
 H     15  12  10     2.044849528924   117.91267514   177.77332343
 C     17  15  12     2.858486746897   122.27180436   178.78665364
 C     20  17  15     2.858148645871   115.08122122   220.39589929
 C     20  17  15     2.616446695045   122.46069789    40.35454867
 C     22  20  17     2.827599103344   122.38756340     9.42110369
 C     22  20  17     2.829618167102   122.42001867   189.47408691
 C     23  22  20     2.531580916794   122.40372055   179.77379658
 H     23  22  20     2.042149340660   121.76070478     2.91910828
 C     24  22  20     2.535300628506   122.68787960   179.68721779
 H     24  22  20     2.042535147307   121.49758841     2.88987116
 C     25  23  22     2.834307680762   122.43599083     0.49827098
 H     25  23  22     2.048743348197   116.33035359   181.20321809
 H     27  24  22     2.037045695172   114.78843319   181.30469932
 N     29  25  23     2.494469251235   121.10323904   179.79212046
 C     32  29  25     2.760485613384   120.85079544     0.04267085
 H     33  32  29     2.100113559404   110.24441540   299.08163533
 H     33  32  29     2.102158242596   111.91681244   180.03871442
 H     33  32  29     2.100111169979   110.24559143    61.03590005
 C     32  29  25     2.764345056052   124.39122983   180.03294948
 H     37  32  29     2.072397437004   116.42046492     0.10891889
 H     37  32  29     2.099692700965   109.35920813   239.46570223
 H     37  32  29     2.099608529971   109.35900112   120.70182928
 C     21  20  17     2.656243507406   122.28045199   220.38362918
 C     21  20  17     2.656239445689   119.98018963    37.77369876
 C     41  21  20     2.640159450097   121.22839824   178.81549114
 H     41  21  20     2.044959858841   120.82059174     0.51970843
 C     42  21  20     2.639482672013   121.30406266   181.15844540
 H     42  21  20     2.046724735103   120.42517207     2.18544422
 C     45  42  21     2.671983823431   121.34144331     0.46914152
 H     43  41  21     2.036880113520   116.28085109   181.17144628
 H     45  42  21     2.036519025957   116.24149561   181.70899132
 N     47  45  42     2.738635634145   121.52236512   179.96704008
 C     50  47  45     2.755113194795   122.56082286   340.03643241
 H     51  50  47     2.083926767694   114.24270248   355.20802300
 H     51  50  47     2.099345090397   109.35763818   237.09767410
 H     51  50  47     2.098922729188   109.91237364   117.79868609
 C     50  47  45     2.755044093552   122.49074138   160.00733570
 H     55  50  47     2.084333730301   114.20111516   355.20877633
 H     55  50  47     2.099326221809   109.36227705   237.11321911
 H     55  50  47     2.098914171995   109.91479361   117.80308287
 Cl    38  37  32     6.014097942275   120.11123180   273.85500616

---------------------
BASIS SET INFORMATION
---------------------
There are 4 groups of distinct atoms

 Group   1 Type N   : 11s6p2d1f contracted to 5s3p2d1f pattern {62111/411/11/1}
 Group   2 Type C   : 11s6p2d1f contracted to 5s3p2d1f pattern {62111/411/11/1}
 Group   3 Type H   : 5s1p contracted to 3s1p pattern {311/1}
 Group   4 Type Cl  : 14s9p3d1f contracted to 5s5p2d1f pattern {73211/51111/21/1}

Atom   0N    basis set group =>   1
Atom   1C    basis set group =>   2
Atom   2H    basis set group =>   3
Atom   3H    basis set group =>   3
Atom   4H    basis set group =>   3
Atom   5C    basis set group =>   2
Atom   6H    basis set group =>   3
Atom   7H    basis set group =>   3
Atom   8H    basis set group =>   3
Atom   9C    basis set group =>   2
Atom  10C    basis set group =>   2
Atom  11C    basis set group =>   2
Atom  12C    basis set group =>   2
Atom  13H    basis set group =>   3
Atom  14C    basis set group =>   2
Atom  15H    basis set group =>   3
Atom  16C    basis set group =>   2
Atom  17H    basis set group =>   3
Atom  18H    basis set group =>   3
Atom  19C    basis set group =>   2
Atom  20C    basis set group =>   2
Atom  21C    basis set group =>   2
Atom  22C    basis set group =>   2
Atom  23C    basis set group =>   2
Atom  24C    basis set group =>   2
Atom  25H    basis set group =>   3
Atom  26C    basis set group =>   2
Atom  27H    basis set group =>   3
Atom  28C    basis set group =>   2
Atom  29H    basis set group =>   3
Atom  30H    basis set group =>   3
Atom  31N    basis set group =>   1
Atom  32C    basis set group =>   2
Atom  33H    basis set group =>   3
Atom  34H    basis set group =>   3
Atom  35H    basis set group =>   3
Atom  36C    basis set group =>   2
Atom  37H    basis set group =>   3
Atom  38H    basis set group =>   3
Atom  39H    basis set group =>   3
Atom  40C    basis set group =>   2
Atom  41C    basis set group =>   2
Atom  42C    basis set group =>   2
Atom  43H    basis set group =>   3
Atom  44C    basis set group =>   2
Atom  45H    basis set group =>   3
Atom  46C    basis set group =>   2
Atom  47H    basis set group =>   3
Atom  48H    basis set group =>   3
Atom  49N    basis set group =>   1
Atom  50C    basis set group =>   2
Atom  51H    basis set group =>   3
Atom  52H    basis set group =>   3
Atom  53H    basis set group =>   3
Atom  54C    basis set group =>   2
Atom  55H    basis set group =>   3
Atom  56H    basis set group =>   3
Atom  57H    basis set group =>   3
Atom  58Cl   basis set group =>   4
---------------------------------
AUXILIARY/J BASIS SET INFORMATION
---------------------------------
There are 4 groups of distinct atoms

 Group   1 Type N   : 12s5p4d2f1g contracted to 6s4p3d1f1g pattern {711111/2111/211/2/1}
 Group   2 Type C   : 12s5p4d2f1g contracted to 6s4p3d1f1g pattern {711111/2111/211/2/1}
 Group   3 Type H   : 5s2p1d contracted to 3s1p1d pattern {311/2/1}
 Group   4 Type Cl  : 14s5p5d2f1g contracted to 8s4p3d1f1g pattern {71111111/2111/311/2/1}

Atom   0N    basis set group =>   1
Atom   1C    basis set group =>   2
Atom   2H    basis set group =>   3
Atom   3H    basis set group =>   3
Atom   4H    basis set group =>   3
Atom   5C    basis set group =>   2
Atom   6H    basis set group =>   3
Atom   7H    basis set group =>   3
Atom   8H    basis set group =>   3
Atom   9C    basis set group =>   2
Atom  10C    basis set group =>   2
Atom  11C    basis set group =>   2
Atom  12C    basis set group =>   2
Atom  13H    basis set group =>   3
Atom  14C    basis set group =>   2
Atom  15H    basis set group =>   3
Atom  16C    basis set group =>   2
Atom  17H    basis set group =>   3
Atom  18H    basis set group =>   3
Atom  19C    basis set group =>   2
Atom  20C    basis set group =>   2
Atom  21C    basis set group =>   2
Atom  22C    basis set group =>   2
Atom  23C    basis set group =>   2
Atom  24C    basis set group =>   2
Atom  25H    basis set group =>   3
Atom  26C    basis set group =>   2
Atom  27H    basis set group =>   3
Atom  28C    basis set group =>   2
Atom  29H    basis set group =>   3
Atom  30H    basis set group =>   3
Atom  31N    basis set group =>   1
Atom  32C    basis set group =>   2
Atom  33H    basis set group =>   3
Atom  34H    basis set group =>   3
Atom  35H    basis set group =>   3
Atom  36C    basis set group =>   2
Atom  37H    basis set group =>   3
Atom  38H    basis set group =>   3
Atom  39H    basis set group =>   3
Atom  40C    basis set group =>   2
Atom  41C    basis set group =>   2
Atom  42C    basis set group =>   2
Atom  43H    basis set group =>   3
Atom  44C    basis set group =>   2
Atom  45H    basis set group =>   3
Atom  46C    basis set group =>   2
Atom  47H    basis set group =>   3
Atom  48H    basis set group =>   3
Atom  49N    basis set group =>   1
Atom  50C    basis set group =>   2
Atom  51H    basis set group =>   3
Atom  52H    basis set group =>   3
Atom  53H    basis set group =>   3
Atom  54C    basis set group =>   2
Atom  55H    basis set group =>   3
Atom  56H    basis set group =>   3
Atom  57H    basis set group =>   3
Atom  58Cl   basis set group =>   4
--------------------------------------------------------------------------
[[2152,1],2]: A high-performance Open MPI point-to-point messaging module
was unable to find any relevant network interfaces:

Module: OpenFabrics (openib)
  Host: compute-0-8

Another transport will be used instead, although this may result in
lower performance.

NOTE: You can disable this warning by setting the MCA parameter
btl_base_warn_component_unused to 0.
--------------------------------------------------------------------------


           ************************************************************
           *        Program running with 4 parallel MPI-processes     *
           *              working on a common directory               *
           ************************************************************
------------------------------------------------------------------------------
                           ORCA GTO INTEGRAL CALCULATION
------------------------------------------------------------------------------

                         BASIS SET STATISTICS AND STARTUP INFO

 # of primitive gaussian shells          ...  767
 # of primitive gaussian functions       ... 1591
 # of contracted shells                  ...  441
 # of contracted basis functions         ... 1085
 Highest angular momentum                ...    3
 Maximum contraction depth               ...    7
 Integral package used                   ... LIBINT
 Integral threshhold            Thresh   ...  2.500e-11
 Primitive cut-off              TCut     ...  2.500e-12


------------------------------ INTEGRAL EVALUATION ----------------------------


 * One electron integrals 
 Pre-screening matrix                    ... done
 Shell pair data                         ... done (   0.026 sec)

[compute-0-8.local:54520] 3 more processes have sent help message help-mpi-btl-base.txt / btl:no-nics
[compute-0-8.local:54520] Set MCA parameter "orte_base_help_aggregate" to 0 to see all help / error messages
--------------------------------------------------------------------------
[[2463,1],3]: A high-performance Open MPI point-to-point messaging module
was unable to find any relevant network interfaces:

Module: OpenFabrics (openib)
  Host: compute-0-8

Another transport will be used instead, although this may result in
lower performance.

NOTE: You can disable this warning by setting the MCA parameter
btl_base_warn_component_unused to 0.
--------------------------------------------------------------------------


           ************************************************************
           *        Program running with 4 parallel MPI-processes     *
           *              working on a common directory               *
           ************************************************************
-------------------------------------------------------------------------------
                                 ORCA SCF
-------------------------------------------------------------------------------

------------
SCF SETTINGS
------------
Hamiltonian:
 Density Functional     Method          .... DFT(GTOs)
 Exchange Functional    Exchange        .... WB97X-D3
 Correlation Functional Correlation     .... WB97X-D3
 Gradients option       PostSCFGGA      .... off
 Hybrid DFT is turned on
   Fraction HF Exchange ScalHFX         ....  0.195728
   Scaling of DF-GGA-X  ScalDFX         ....  0.000000
   Scaling of DF-GGA-C  ScalDFC         ....  1.000000
   Scaling of DF-LDA-C  ScalLDAC        ....  1.000000
   Perturbative correction              ....  0.000000
   Density functional embedding theory  .... OFF
 Long-range corrected/Screened/Range-Separated Hybrid DFT is turned on
   Amount of maximum screened exact exchange              ....  0.804272
   Range separation parameter mu (erf(mu*r12)/r12)        ....  0.250000


General Settings:
 Integral files         IntName         .... Crys_vi
 Hartree-Fock type      HFTyp           .... RHF
 Total Charge           Charge          ....    0
 Multiplicity           Mult            ....    1
 Number of Electrons    NEL             ....  218
 Basis Dimension        Dim             .... 1085
 Nuclear Repulsion      ENuc            ....   2663.8530810401 Eh

Convergence Acceleration:
 DIIS                   CNVDIIS         .... on
   Start iteration      DIISMaxIt       ....    12
   Startup error        DIISStart       ....  0.200000
   # of expansion vecs  DIISMaxEq       ....     5
   Bias factor          DIISBfac        ....   1.050
   Max. coefficient     DIISMaxC        ....  10.000
 Newton-Raphson         CNVNR           .... off
 SOSCF                  CNVSOSCF        .... on
   Start iteration      SOSCFMaxIt      ....   150
   Startup grad/error   SOSCFStart      ....  0.003300
 Level Shifting         CNVShift        .... on
   Level shift para.    LevelShift      ....    0.2500
   Turn off err/grad.   ShiftErr        ....    0.0010
 Zerner damping         CNVZerner       .... off
 Static damping         CNVDamp         .... on
   Fraction old density DampFac         ....    0.7000
   Max. Damping (<1)    DampMax         ....    0.9800
   Min. Damping (>=0)   DampMin         ....    0.0000
   Turn off err/grad.   DampErr         ....    0.1000
 Fernandez-Rico         CNVRico         .... off

SCF Procedure:
 Maximum # iterations   MaxIter         ....   125
 SCF integral mode      SCFMode         .... Direct
   Integral package                     .... LIBINT
 Reset frequency        DirectResetFreq ....    20
 Integral Threshold     Thresh          ....  2.500e-11 Eh
 Primitive CutOff       TCut            ....  2.500e-12 Eh

Convergence Tolerance:
 Convergence Check Mode ConvCheckMode   .... Total+1el-Energy
 Convergence forced     ConvForced      .... 0
 Energy Change          TolE            ....  1.000e-08 Eh
 1-El. energy change                    ....  1.000e-05 Eh
 Orbital Gradient       TolG            ....  1.000e-05
 Orbital Rotation angle TolX            ....  1.000e-05
 DIIS Error             TolErr          ....  5.000e-07


Diagonalization of the overlap matrix:
Smallest eigenvalue                        ... 6.560e-06
Time for diagonalization                   ...    0.381 sec
Threshold for overlap eigenvalues          ... 1.000e-08
Number of eigenvalues below threshold      ... 0
Time for construction of square roots      ...    0.242 sec
Total time needed                          ...    0.627 sec

-------------------
DFT GRID GENERATION
-------------------

General Integration Accuracy     IntAcc      ...  4.340
Radial Grid Type                 RadialGrid  ... Gauss-Chebyshev
Angular Grid (max. acc.)         AngularGrid ... Lebedev-110
Angular grid pruning method      GridPruning ... 3 (G Style)
Weight generation scheme         WeightScheme... Becke
Basis function cutoff            BFCut       ...    1.0000e-11
Integration weight cutoff        WCut        ...    1.0000e-14
Grids for H and He will be reduced by one unit

# of grid points (after initial pruning)     ...  72170 (   0.0 sec)
# of grid points (after weights+screening)   ...  63879 (   0.7 sec)
nearest neighbour list constructed           ...    0.0 sec
Grid point re-assignment to atoms done       ...    0.0 sec
Grid point division into batches done        ...    0.1 sec
Reduced shell lists constructed in    0.6 sec

Total number of grid points                  ...    63879
Total number of batches                      ...     1031
Average number of points per batch           ...       61
Average number of grid points per atom       ...     1083
Average number of shells per batch           ...   140.80 (31.93%)
Average number of basis functions per batch  ...   334.53 (30.83%)
Average number of large shells per batch     ...    90.11 (64.00%)
Average number of large basis fcns per batch ...   217.59 (65.04%)
Maximum spatial batch extension              ...  20.55, 19.89, 20.71 au
Average spatial batch extension              ...   0.83,  0.84,  0.87 au

Time for grid setup =    1.524 sec

------------------------------
INITIAL GUESS: MODEL POTENTIAL
------------------------------
Loading Hartree-Fock densities                     ... done
Calculating cut-offs                               ... done
Setting up the integral package                    ... done
Initializing the effective Hamiltonian             ... done
Starting the Coulomb interaction                   ... done (   2.3 sec)
Reading the grid                                   ... done
Mapping shells                                     ... done
Starting the XC term evaluation                    ... [compute-0-8.local:54543] 3 more processes have sent help message help-mpi-btl-base.txt / btl:no-nics
[compute-0-8.local:54543] Set MCA parameter "orte_base_help_aggregate" to 0 to see all help / error messages
done (   1.5 sec)
  promolecular density results
     # of electrons  =    218.008495272
     EX              =   -183.598358784
     EC              =     -7.329296354
     EX+EC           =   -190.927655138
Transforming the Hamiltonian                       ... done (   0.2 sec)
Diagonalizing the Hamiltonian                      ... done (   0.4 sec)
Back transforming the eigenvectors                 ... done (   0.1 sec)
Now organizing SCF variables                       ... done
                      ------------------
                      INITIAL GUESS DONE (   6.2 sec)
                      ------------------

--------------------
CPCM SOLVATION MODEL
--------------------
CPCM parameters:
  Epsilon                                         ...       3.0000
  Refrac                                          ...       1.3300
  Rsolv                                           ...       1.3000
  Surface type                                    ...    GEPOL SES
  Epsilon function type                           ...         CPCM
Radii:
 Radius for N  used is    3.4582 Bohr (=   1.8300 Ang.)
 Radius for C  used is    3.7795 Bohr (=   2.0000 Ang.)
 Radius for H  used is    2.4566 Bohr (=   1.3000 Ang.)
 Radius for Cl used is    3.8739 Bohr (=   2.0500 Ang.)
Calculating surface                               ...        done! (  0.2s)
GEPOL surface points                              ...         1997
GEPOL Volume                                      ...    3523.8430
GEPOL Surface-area                                ...    1737.3398
Calculating surface distance matrix               ...        done! (  0.0s)
Performing Cholesky decomposition & store         ...        done! (  0.3s)
Overall time for CPCM initialization              ...                 0.5s
--------------
SCF ITERATIONS
--------------
ITER       Energy         Delta-E        Max-DP      RMS-DP      [F,P]     Damp
               ***  Starting incremental Fock matrix formation  ***
  0  -1594.6478255342   0.000000000000 0.09348552  0.00053981  0.1616872 0.7000
  1  -1594.8560964814  -0.208270947114 0.06565219  0.00051367  0.1038852 0.7000
                               ***Turning on DIIS***
  2  -1594.9719162157  -0.115819734348 0.15191703  0.00127516  0.0584201 0.0000
  3  -1595.1700458714  -0.198129655723 0.04871947  0.00025194  0.0342254 0.0000
  4  -1595.1925360552  -0.022490183740 0.01415817  0.00009587  0.0056783 0.0000
                      *** Initiating the SOSCF procedure ***
                           *** Shutting down DIIS ***
                      *** Re-Reading the Fockian *** 
                      *** Removing any level shift *** 
ITER      Energy       Delta-E        Grad      Rot      Max-DP    RMS-DP
  5  -1595.19337138  -0.0008353225  0.003127  0.003127  0.009396  0.000049
               *** Restarting incremental Fock matrix formation ***
  6  -1595.19358724  -0.0002158648  0.001734  0.007591  0.005601  0.000034
  7  -1595.19371491  -0.0001276658  0.000810  0.008188  0.005676  0.000033
  8  -1595.19374476  -0.0000298519  0.000617  0.001746  0.001156  0.000008
  9  -1595.19375450  -0.0000097384  0.000098  0.000636  0.000716  0.000004
 10  -1595.19375541  -0.0000009157  0.000058  0.000295  0.000090  0.000001
 11  -1595.19375574  -0.0000003209  0.000037  0.000336  0.000092  0.000001
 12  -1595.19375580  -0.0000000626  0.000021  0.000151  0.000045  0.000001
 13  -1595.19375581  -0.0000000106  0.000005  0.000030  0.000025  0.000000
                  ***Gradient check signals convergence***
              ***Rediagonalizing the Fockian in SOSCF/NRSCF***

               *****************************************************
               *                     SUCCESS                       *
               *           SCF CONVERGED AFTER  14 CYCLES          *
               *****************************************************

Setting up the final grid:

General Integration Accuracy     IntAcc      ...  4.670
Radial Grid Type                 RadialGrid  ... Gauss-Chebyshev
Angular Grid (max. acc.)         AngularGrid ... Lebedev-302
Angular grid pruning method      GridPruning ... 3 (G Style)
Weight generation scheme         WeightScheme... Becke
Basis function cutoff            BFCut       ...    1.0000e-11
Integration weight cutoff        WCut        ...    1.0000e-14
Grids for H and He will be reduced by one unit

# of grid points (after initial pruning)     ... 282494 (   0.0 sec)
# of grid points (after weights+screening)   ... 244621 (   2.9 sec)
nearest neighbour list constructed           ...    0.0 sec
Grid point re-assignment to atoms done       ...    0.1 sec
Grid point division into batches done        ...    1.1 sec
Reduced shell lists constructed in    2.8 sec

Total number of grid points                  ...   244621
Total number of batches                      ...     3850
Average number of points per batch           ...       63
Average number of grid points per atom       ...     4146
Average number of shells per batch           ...   127.17 (28.84%)
Average number of basis functions per batch  ...   300.78 (27.72%)
Average number of large shells per batch     ...    80.66 (63.43%)
Average number of large basis fcns per batch ...   192.64 (64.05%)
Maximum spatial batch extension              ...  26.29, 18.89, 21.52 au
Average spatial batch extension              ...   0.56,  0.55,  0.57 au

Final grid set up in    6.4 sec
Final integration                            ... done (   6.2 sec)
Change in XC energy                          ...     0.007717725
Integrated number of electrons               ...   218.000426328
Previous integrated no of electrons          ...   218.014611596

----------------
TOTAL SCF ENERGY
----------------

Total Energy       :        -1595.18603810 Eh          -43407.21888 eV

Components:
Nuclear Repulsion  :         2663.85308104 Eh           72487.12751 eV
Electronic Energy  :        -4259.03911914 Eh         -115894.34639 eV
One Electron Energy:        -7466.80050380 Eh         -203181.97128 eV
Two Electron Energy:         3207.76138466 Eh           87287.62489 eV
CPCM Dielectric    :           -0.05748501 Eh              -1.56425 eV

Virial components:
Potential Energy   :        -3182.72703991 Eh          -86606.40574 eV
Kinetic Energy     :         1587.54100181 Eh           43199.18686 eV
Virial Ratio       :            2.00481565


DFT components:
N(Alpha)           :      109.000213164009 electrons
N(Beta)            :      109.000213164009 electrons
N(Total)           :      218.000426328018 electrons
E(XC)              :     -135.506829434340 Eh       
DFET-embed. en.    :        0.000000000000 Eh       
CPCM Solvation Model Properties:
Surface-charge          :           -0.05172917
Charge-correction       :           -0.00113089 Eh              -0.03077 eV
Free-energy (cav+disp)  :            0.00734918 Eh               0.19998 eV
Corrected G(solv)       :        -1595.17981981 Eh          -43407.04967 eV

---------------
SCF CONVERGENCE
---------------

  Last Energy change         ...   -1.8084e-08  Tolerance :   1.0000e-08
  Last MAX-Density change    ...    3.7009e-05  Tolerance :   1.0000e-07
  Last RMS-Density change    ...    2.9188e-07  Tolerance :   5.0000e-09
  Last Orbital Gradient      ...    2.3392e-06  Tolerance :   1.0000e-05
  Last Orbital Rotation      ...    8.3299e-06  Tolerance :   1.0000e-05

             **** THE GBW FILE WAS UPDATED (Crys_vi.gbw) ****
             **** DENSITY FILE WAS UPDATED (Crys_vi.scfp) ****
             **** ENERGY FILE WAS UPDATED (Crys_vi.en.tmp) ****
             **** THE GBW FILE WAS UPDATED (Crys_vi.gbw) ****
             **** DENSITY FILE WAS UPDATED (Crys_vi.scfp) ****
----------------
ORBITAL ENERGIES
----------------

  NO   OCC          E(Eh)            E(eV) 
   0   2.0000    -101.454132     -2760.7073 
   1   2.0000     -14.509616      -394.8267 
   2   2.0000     -14.450098      -393.2072 
   3   2.0000     -14.445925      -393.0936 
   4   2.0000     -10.390314      -282.7348 
   5   2.0000     -10.349425      -281.6222 
   6   2.0000     -10.348484      -281.5966 
   7   2.0000     -10.345333      -281.5108 
   8   2.0000     -10.330379      -281.1039 
   9   2.0000     -10.319779      -280.8155 
  10   2.0000     -10.317605      -280.7563 
  11   2.0000     -10.316543      -280.7274 
  12   2.0000     -10.312198      -280.6092 
  13   2.0000     -10.311195      -280.5819 
  14   2.0000     -10.311036      -280.5775 
  15   2.0000     -10.307544      -280.4825 
  16   2.0000     -10.306062      -280.4422 
  17   2.0000     -10.305085      -280.4156 
  18   2.0000     -10.302831      -280.3543 
  19   2.0000     -10.300640      -280.2947 
  20   2.0000     -10.299604      -280.2665 
  21   2.0000     -10.298951      -280.2487 
  22   2.0000     -10.298507      -280.2366 
  23   2.0000     -10.295713      -280.1606 
  24   2.0000     -10.294827      -280.1365 
  25   2.0000     -10.288941      -279.9763 
  26   2.0000     -10.288609      -279.9673 
  27   2.0000     -10.284682      -279.8604 
  28   2.0000     -10.283322      -279.8234 
  29   2.0000      -9.404119      -255.8991 
  30   2.0000      -7.151005      -194.5887 
  31   2.0000      -7.150968      -194.5877 
  32   2.0000      -7.150934      -194.5868 
  33   2.0000      -1.121859       -30.5273 
  34   2.0000      -1.059241       -28.8234 
  35   2.0000      -1.054853       -28.7040 
  36   2.0000      -1.004549       -27.3352 
  37   2.0000      -0.978878       -26.6366 
  38   2.0000      -0.976293       -26.5663 
  39   2.0000      -0.928954       -25.2781 
  40   2.0000      -0.901554       -24.5325 
  41   2.0000      -0.884007       -24.0551 
  42   2.0000      -0.878290       -23.8995 
  43   2.0000      -0.873553       -23.7706 
  44   2.0000      -0.871253       -23.7080 
  45   2.0000      -0.854410       -23.2497 
  46   2.0000      -0.838646       -22.8207 
  47   2.0000      -0.834023       -22.6949 
  48   2.0000      -0.829448       -22.5704 
  49   2.0000      -0.788013       -21.4429 
  50   2.0000      -0.772880       -21.0311 
  51   2.0000      -0.760083       -20.6829 
  52   2.0000      -0.741023       -20.1643 
  53   2.0000      -0.731565       -19.9069 
  54   2.0000      -0.729000       -19.8371 
  55   2.0000      -0.715376       -19.4664 
  56   2.0000      -0.708560       -19.2809 
  57   2.0000      -0.697403       -18.9773 
  58   2.0000      -0.682258       -18.5652 
  59   2.0000      -0.654914       -17.8211 
  60   2.0000      -0.641803       -17.4643 
  61   2.0000      -0.635030       -17.2801 
  62   2.0000      -0.613637       -16.6979 
  63   2.0000      -0.606434       -16.5019 
  64   2.0000      -0.600025       -16.3275 
  65   2.0000      -0.589199       -16.0329 
  66   2.0000      -0.581633       -15.8270 
  67   2.0000      -0.579114       -15.7585 
  68   2.0000      -0.572023       -15.5655 
  69   2.0000      -0.567591       -15.4449 
  70   2.0000      -0.567530       -15.4433 
  71   2.0000      -0.561167       -15.2701 
  72   2.0000      -0.555521       -15.1165 
  73   2.0000      -0.550304       -14.9745 
  74   2.0000      -0.535612       -14.5748 
  75   2.0000      -0.533409       -14.5148 
  76   2.0000      -0.531314       -14.4578 
  77   2.0000      -0.531085       -14.4516 
  78   2.0000      -0.524166       -14.2633 
  79   2.0000      -0.518954       -14.1214 
  80   2.0000      -0.514659       -14.0046 
  81   2.0000      -0.509327       -13.8595 
  82   2.0000      -0.498219       -13.5572 
  83   2.0000      -0.495508       -13.4835 
  84   2.0000      -0.494266       -13.4497 
  85   2.0000      -0.491206       -13.3664 
  86   2.0000      -0.489138       -13.3101 
  87   2.0000      -0.485564       -13.2129 
  88   2.0000      -0.482974       -13.1424 
  89   2.0000      -0.481726       -13.1084 
  90   2.0000      -0.480229       -13.0677 
  91   2.0000      -0.475249       -12.9322 
  92   2.0000      -0.470465       -12.8020 
  93   2.0000      -0.463633       -12.6161 
  94   2.0000      -0.447849       -12.1866 
  95   2.0000      -0.441748       -12.0206 
  96   2.0000      -0.432658       -11.7732 
  97   2.0000      -0.428045       -11.6477 
  98   2.0000      -0.395255       -10.7554 
  99   2.0000      -0.388844       -10.5810 
 100   2.0000      -0.380341       -10.3496 
 101   2.0000      -0.358209        -9.7474 
 102   2.0000      -0.348726        -9.4893 
 103   2.0000      -0.330665        -8.9979 
 104   2.0000      -0.290869        -7.9149 
 105   2.0000      -0.290261        -7.8984 
 106   2.0000      -0.289193        -7.8693 
 107   2.0000      -0.284997        -7.7552 
 108   2.0000      -0.274927        -7.4812 
 109   0.0000      -0.052378        -1.4253 
 110   0.0000       0.038209         1.0397 
 111   0.0000       0.044824         1.2197 
 112   0.0000       0.048395         1.3169 
 113   0.0000       0.060774         1.6537 
 114   0.0000       0.063558         1.7295 
 115   0.0000       0.106357         2.8941 
 116   0.0000       0.111588         3.0365 
 117   0.0000       0.113664         3.0929 
 118   0.0000       0.115324         3.1381 
 119   0.0000       0.131543         3.5795 
 120   0.0000       0.136020         3.7013 
 121   0.0000       0.139847         3.8054 
 122   0.0000       0.143843         3.9142 
 123   0.0000       0.148510         4.0412 
 124   0.0000       0.153930         4.1887 
 125   0.0000       0.155183         4.2227 
 126   0.0000       0.158044         4.3006 
 127   0.0000       0.162799         4.4300 
 128   0.0000       0.167847         4.5674 
 129   0.0000       0.170703         4.6451 
 130   0.0000       0.173517         4.7216 
 131   0.0000       0.176383         4.7996 
 132   0.0000       0.179765         4.8917 
 133   0.0000       0.181688         4.9440 
 134   0.0000       0.184371         5.0170 
 135   0.0000       0.186403         5.0723 
 136   0.0000       0.187794         5.1101 
 137   0.0000       0.191205         5.2029 
 138   0.0000       0.194615         5.2957 
 139   0.0000       0.197888         5.3848 
 140   0.0000       0.202849         5.5198 
 141   0.0000       0.206664         5.6236 
 142   0.0000       0.208126         5.6634 
 143   0.0000       0.209019         5.6877 
 144   0.0000       0.212810         5.7909 
 145   0.0000       0.216835         5.9004 
 146   0.0000       0.220136         5.9902 
 147   0.0000       0.220750         6.0069 
 148   0.0000       0.223026         6.0688 
 149   0.0000       0.226956         6.1758 
 150   0.0000       0.227145         6.1809 
 151   0.0000       0.236268         6.4292 
 152   0.0000       0.240363         6.5406 
 153   0.0000       0.242143         6.5891 
 154   0.0000       0.244845         6.6626 
 155   0.0000       0.246965         6.7203 
 156   0.0000       0.250390         6.8135 
 157   0.0000       0.252186         6.8623 
 158   0.0000       0.256336         6.9753 
 159   0.0000       0.261854         7.1254 
 160   0.0000       0.266731         7.2581 
 161   0.0000       0.274360         7.4657 
 162   0.0000       0.277730         7.5574 
 163   0.0000       0.278945         7.5905 
 164   0.0000       0.281925         7.6716 
 165   0.0000       0.287649         7.8273 
 166   0.0000       0.289339         7.8733 
 167   0.0000       0.292686         7.9644 
 168   0.0000       0.295053         8.0288 
 169   0.0000       0.296924         8.0797 
 170   0.0000       0.300610         8.1800 
 171   0.0000       0.303550         8.2600 
 172   0.0000       0.306667         8.3448 
 173   0.0000       0.312127         8.4934 
 174   0.0000       0.319501         8.6941 
 175   0.0000       0.325182         8.8486 
 176   0.0000       0.327589         8.9142 
 177   0.0000       0.329079         8.9547 
 178   0.0000       0.329605         8.9690 
 179   0.0000       0.338150         9.2015 
 180   0.0000       0.339305         9.2330 
 181   0.0000       0.344716         9.3802 
 182   0.0000       0.347138         9.4461 
[...]
      py      :     0.023777
 34 H s       :     0.811365  s :     0.811365
      pz      :     0.013823  p :     0.061867
      px      :     0.037783
      py      :     0.010261
 35 H s       :     0.813798  s :     0.813798
      pz      :     0.036171  p :     0.061844
      px      :     0.014048
      py      :     0.011625
 36 C s       :     2.831980  s :     2.831980
      pz      :     1.103343  p :     3.086448
      px      :     1.007036
      py      :     0.976069
      dz2     :     0.041534  d :     0.320064
      dxz     :     0.037515
      dyz     :     0.098714
      dx2y2   :     0.073080
      dxy     :     0.069221
      f0      :     0.005620  f :     0.039428
      f+1     :     0.002897
      f-1     :     0.004097
      f+2     :     0.002144
      f-2     :     0.008520
      f+3     :     0.007447
      f-3     :     0.008702
 37 H s       :     0.813909  s :     0.813909
      pz      :     0.025852  p :     0.065420
      px      :     0.015133
      py      :     0.024435
 38 H s       :     0.813605  s :     0.813605
      pz      :     0.016484  p :     0.062193
      px      :     0.032435
      py      :     0.013274
 39 H s       :     0.819724  s :     0.819724
      pz      :     0.033628  p :     0.061419
      px      :     0.012330
      py      :     0.015462
 40 C s       :     2.757834  s :     2.757834
      pz      :     0.894171  p :     2.870674
      px      :     0.974778
      py      :     1.001725
      dz2     :     0.073858  d :     0.398541
      dxz     :     0.045450
      dyz     :     0.079458
      dx2y2   :     0.094054
      dxy     :     0.105721
      f0      :     0.003903  f :     0.043778
      f+1     :     0.004844
      f-1     :     0.005583
      f+2     :     0.008039
      f-2     :     0.005806
      f+3     :     0.008017
      f-3     :     0.007586
 41 C s       :     2.753969  s :     2.753969
      pz      :     0.895816  p :     2.880442
      px      :     0.973743
      py      :     1.010883
      dz2     :     0.033958  d :     0.405426
      dxz     :     0.077924
      dyz     :     0.073009
      dx2y2   :     0.102165
      dxy     :     0.118370
      f0      :     0.003677  f :     0.043891
      f+1     :     0.003196
      f-1     :     0.006223
      f+2     :     0.006964
      f-2     :     0.005142
      f+3     :     0.011327
      f-3     :     0.007361
 42 C s       :     2.749382  s :     2.749382
      pz      :     0.967637  p :     2.975916
      px      :     0.984466
      py      :     1.023813
      dz2     :     0.034408  d :     0.362588
      dxz     :     0.063117
      dyz     :     0.060172
      dx2y2   :     0.087083
      dxy     :     0.117808
      f0      :     0.003681  f :     0.042158
      f+1     :     0.002950
      f-1     :     0.005555
      f+2     :     0.006939
      f-2     :     0.005321
      f+3     :     0.010534
      f-3     :     0.007177
 43 H s       :     0.777959  s :     0.777959
      pz      :     0.013446  p :     0.067599
      px      :     0.039285
      py      :     0.014868
 44 C s       :     2.750161  s :     2.750161
      pz      :     0.975435  p :     2.981967
      px      :     0.977233
      py      :     1.029300
      dz2     :     0.056121  d :     0.362909
      dxz     :     0.042753
      dyz     :     0.073054
      dx2y2   :     0.086903
      dxy     :     0.104077
      f0      :     0.003854  f :     0.041980
      f+1     :     0.004022
      f-1     :     0.005588
      f+2     :     0.007939
      f-2     :     0.005634
      f+3     :     0.007914
      f-3     :     0.007029
 45 H s       :     0.776774  s :     0.776774
      pz      :     0.020825  p :     0.059656
      px      :     0.022136
      py      :     0.016695
 46 C s       :     2.694829  s :     2.694829
      pz      :     0.858643  p :     2.754374
      px      :     1.010515
      py      :     0.885216
      dz2     :     0.101186  d :     0.641681
      dxz     :     0.102262
      dyz     :     0.120984
      dx2y2   :     0.169071
      dxy     :     0.148178
      f0      :     0.006567  f :     0.079383
      f+1     :     0.007335
      f-1     :     0.012049
      f+2     :     0.013338
      f-2     :     0.009011
      f+3     :     0.017665
      f-3     :     0.013418
 47 H s       :     0.778175  s :     0.778175
      pz      :     0.022708  p :     0.062542
      px      :     0.023770
      py      :     0.016063
 48 H s       :     0.782611  s :     0.782611
      pz      :     0.015269  p :     0.062254
      px      :     0.030996
      py      :     0.015988
 49 N s       :     2.867940  s :     2.867940
      pz      :     1.285672  p :     3.639881
      px      :     1.164487
      py      :     1.189722
      dz2     :     0.040495  d :     0.302482
      dxz     :     0.049520
      dyz     :     0.049202
      dx2y2   :     0.078870
      dxy     :     0.084396
      f0      :     0.001908  f :     0.020816
      f+1     :     0.002498
      f-1     :     0.002529
      f+2     :     0.003663
      f-2     :     0.002468
      f+3     :     0.004879
      f-3     :     0.002871
 50 C s       :     2.828455  s :     2.828455
      pz      :     1.093628  p :     3.082478
      px      :     0.933260
      py      :     1.055590
      dz2     :     0.062191  d :     0.331469
      dxz     :     0.069045
      dyz     :     0.043126
      dx2y2   :     0.080137
      dxy     :     0.076969
      f0      :     0.006011  f :     0.040191
      f+1     :     0.004345
      f-1     :     0.001269
      f+2     :     0.005889
      f-2     :     0.006628
      f+3     :     0.008594
      f-3     :     0.007454
 51 H s       :     0.816175  s :     0.816175
      pz      :     0.015972  p :     0.061440
      px      :     0.024621
      py      :     0.020847
 52 H s       :     0.811415  s :     0.811415
      pz      :     0.019800  p :     0.061981
      px      :     0.010409
      py      :     0.031772
 53 H s       :     0.816857  s :     0.816857
      pz      :     0.036804  p :     0.061437
      px      :     0.010813
      py      :     0.013820
 54 C s       :     2.828652  s :     2.828652
      pz      :     1.027214  p :     3.080879
      px      :     1.011547
      py      :     1.042118
      dz2     :     0.073959  d :     0.328657
      dxz     :     0.075065
      dyz     :     0.055868
      dx2y2   :     0.059443
      dxy     :     0.064322
      f0      :     0.004911  f :     0.039973
      f+1     :     0.006807
      f-1     :     0.006456
      f+2     :     0.005396
      f-2     :     0.005710
      f+3     :     0.006520
      f-3     :     0.004175
 55 H s       :     0.813415  s :     0.813415
      pz      :     0.017980  p :     0.061754
      px      :     0.030202
      py      :     0.013572
 56 H s       :     0.813219  s :     0.813219
      pz      :     0.014814  p :     0.062047
      px      :     0.015509
      py      :     0.031724
 57 H s       :     0.813539  s :     0.813539
      pz      :     0.029226  p :     0.061746
      px      :     0.013245
      py      :     0.019274
 58 Cls       :     5.965935  s :     5.965935
      pz      :     3.959166  p :    11.879867
      px      :     3.941117
      py      :     3.979584
      dz2     :     0.000567  d :     0.001824
      dxz     :     0.000487
      dyz     :     0.000173
      dx2y2   :     0.000545
      dxy     :     0.000052
      f0      :     0.000016  f :     0.000068
      f+1     :     0.000008
      f-1     :     0.000007
      f+2     :     0.000017
      f-2     :     0.000003
      f+3     :     0.000015
      f-3     :     0.000002


                      *****************************
                      * MAYER POPULATION ANALYSIS *
                      *****************************

  NA   - Mulliken gross atomic population
  ZA   - Total nuclear charge
  QA   - Mulliken gross atomic charge
  VA   - Mayer's total valence
  BVA  - Mayer's bonded valence
  FA   - Mayer's free valence

  ATOM       NA         ZA         QA         VA         BVA        FA
  0 N      7.0764     7.0000    -0.0764     3.2282     3.2282    -0.0000
  1 C      6.3251     6.0000    -0.3251     3.8640     3.8640    -0.0000
  2 H      0.8489     1.0000     0.1511     0.9563     0.9563    -0.0000
  3 H      0.8502     1.0000     0.1498     0.9710     0.9710    -0.0000
  4 H      0.8507     1.0000     0.1493     0.9544     0.9544    -0.0000
  5 C      6.3287     6.0000    -0.3287     3.8602     3.8602    -0.0000
  6 H      0.8500     1.0000     0.1500     0.9546     0.9546    -0.0000
  7 H      0.8481     1.0000     0.1519     0.9553     0.9553    -0.0000
  8 H      0.8477     1.0000     0.1523     0.9708     0.9708    -0.0000
  9 C      5.7005     6.0000     0.2995     3.7932     3.7932    -0.0000
 10 C      6.2788     6.0000    -0.2788     3.9014     3.9014    -0.0000
 11 C      6.2703     6.0000    -0.2703     3.9019     3.9019    -0.0000
 12 C      6.2710     6.0000    -0.2710     4.0923     4.0923    -0.0000
 13 H      0.8357     1.0000     0.1643     0.9702     0.9702    -0.0000
 14 C      6.2845     6.0000    -0.2845     4.1011     4.1011    -0.0000
 15 H      0.8374     1.0000     0.1626     0.9713     0.9713    -0.0000
 16 C      5.8576     6.0000     0.1424     3.4527     3.4527    -0.0000
 17 H      0.8174     1.0000     0.1826     0.9512     0.9512    -0.0000
 18 H      0.8262     1.0000     0.1738     0.9559     0.9559    -0.0000
 19 C      5.7549     6.0000     0.2451     3.3134     3.3134    -0.0000
 20 C      5.9044     6.0000     0.0956     3.5088     3.5088    -0.0000
 21 C      5.9211     6.0000     0.0789     3.5583     3.5583    -0.0000
 22 C      6.2208     6.0000    -0.2208     4.0817     4.0817    -0.0000
 23 C      6.2118     6.0000    -0.2118     4.0438     4.0438    -0.0000
 24 C      6.3165     6.0000    -0.3165     3.9944     3.9944    -0.0000
 25 H      0.8194     1.0000     0.1806     0.9483     0.9483    -0.0000
 26 C      6.2845     6.0000    -0.2845     3.9714     3.9714    -0.0000
 27 H      0.8326     1.0000     0.1674     0.9531     0.9531    -0.0000
 28 C      5.6358     6.0000     0.3642     3.7477     3.7477    -0.0000
 29 H      0.8462     1.0000     0.1538     0.9742     0.9742    -0.0000
 30 H      0.8411     1.0000     0.1589     0.9740     0.9740    -0.0000
 31 N      7.0588     7.0000    -0.0588     3.2556     3.2556    -0.0000
 32 C      6.3273     6.0000    -0.3273     3.8682     3.8682    -0.0000
 33 H      0.8530     1.0000     0.1470     0.9545     0.9545    -0.0000
 34 H      0.8467     1.0000     0.1533     0.9677     0.9677    -0.0000
 35 H      0.8394     1.0000     0.1606     0.9562     0.9562    -0.0000
 36 C      6.3103     6.0000    -0.3103     3.7958     3.7958    -0.0000
 37 H      0.8436     1.0000     0.1564     1.0248     1.0248    -0.0000
 38 H      0.8623     1.0000     0.1377     0.9720     0.9720    -0.0000
 39 H      0.8586     1.0000     0.1414     0.9544     0.9544    -0.0000
 40 C      6.2484     6.0000    -0.2484     4.0586     4.0586    -0.0000
 41 C      6.2936     6.0000    -0.2936     4.0883     4.0883    -0.0000
 42 C      6.2826     6.0000    -0.2826     3.9342     3.9342    -0.0000
 43 H      0.8210     1.0000     0.1790     1.0454     1.0454    -0.0000
 44 C      6.2772     6.0000    -0.2772     3.9053     3.9053    -0.0000
 45 H      0.8234     1.0000     0.1766     0.9524     0.9524    -0.0000
 46 C      5.6935     6.0000     0.3065     3.7874     3.7874    -0.0000
 47 H      0.8414     1.0000     0.1586     1.0072     1.0072    -0.0000
 48 H      0.8390     1.0000     0.1610     0.9720     0.9720    -0.0000
 49 N      7.0748     7.0000    -0.0748     3.2375     3.2375    -0.0000
 50 C      6.3233     6.0000    -0.3233     3.8540     3.8540    -0.0000
 51 H      0.8482     1.0000     0.1518     0.9555     0.9555    -0.0000
 52 H      0.8517     1.0000     0.1483     0.9730     0.9730    -0.0000
 53 H      0.8492     1.0000     0.1508     0.9550     0.9550    -0.0000
 54 C      6.3145     6.0000    -0.3145     3.8581     3.8581    -0.0000
 55 H      0.8434     1.0000     0.1566     0.9573     0.9573    -0.0000
 56 H      0.8587     1.0000     0.1413     0.9713     0.9713    -0.0000
 57 H      0.8443     1.0000     0.1557     0.9564     0.9564    -0.0000
 58 Cl    17.8773    17.0000    -0.8773     0.2282     0.2282    -0.0000

  Mayer bond orders larger than 0.100000
B(  0-N ,  1-C ) :   0.9460 B(  0-N ,  5-C ) :   0.9447 B(  0-N ,  9-C ) :   1.3181 
B(  1-C ,  2-H ) :   0.9654 B(  1-C ,  3-H ) :   0.9659 B(  1-C ,  4-H ) :   0.9630 
B(  5-C ,  6-H ) :   0.9635 B(  5-C ,  7-H ) :   0.9638 B(  5-C ,  8-H ) :   0.9654 
B(  9-C , 10-C ) :   1.2091 B(  9-C , 11-C ) :   1.2083 B( 10-C , 12-C ) :   1.5731 
B( 10-C , 13-H ) :   0.9582 B( 11-C , 14-C ) :   1.5731 B( 11-C , 15-H ) :   0.9569 
B( 12-C , 16-C ) :   1.2758 B( 12-C , 17-H ) :   0.9723 B( 14-C , 16-C ) :   1.2720 
B( 14-C , 18-H ) :   0.9823 B( 16-C , 19-C ) :   1.0460 B( 16-C , 20-C ) :  -0.1049 
B( 16-C , 21-C ) :  -0.1020 B( 19-C , 20-C ) :   1.1197 B( 19-C , 21-C ) :   1.1773 
B( 20-C , 21-C ) :  -0.1092 B( 20-C , 40-C ) :   1.2702 B( 20-C , 41-C ) :   1.2419 
B( 21-C , 22-C ) :   1.2309 B( 21-C , 23-C ) :   1.2275 B( 22-C , 24-C ) :   1.6482 
B( 22-C , 25-H ) :   0.9570 B( 23-C , 26-C ) :   1.6278 B( 23-C , 27-H ) :   0.9780 
B( 24-C , 28-C ) :   1.1780 B( 24-C , 29-H ) :   0.9486 B( 26-C , 28-C ) :   1.1566 
B( 26-C , 30-H ) :   0.9576 B( 28-C , 31-N ) :   1.3679 B( 31-N , 32-C ) :   0.9464 
B( 31-N , 36-C ) :   0.9172 B( 32-C , 33-H ) :   0.9611 B( 32-C , 34-H ) :   0.9652 
B( 32-C , 35-H ) :   0.9624 B( 36-C , 37-H ) :   0.9514 B( 36-C , 38-H ) :   0.9676 
B( 36-C , 39-H ) :   0.9598 B( 40-C , 42-C ) :   1.6357 B( 40-C , 43-H ) :   0.9155 
B( 41-C , 44-C ) :   1.6045 B( 41-C , 45-H ) :   0.9727 B( 42-C , 46-C ) :   1.1957 
B( 42-C , 47-H ) :   0.9437 B( 43-H , 58-Cl) :   0.1485 B( 44-C , 46-C ) :   1.1923 
B( 44-C , 48-H ) :   0.9575 B( 46-C , 49-N ) :   1.3348 B( 49-N , 50-C ) :   0.9409 
B( 49-N , 54-C ) :   0.9388 B( 50-C , 51-H ) :   0.9640 B( 50-C , 52-H ) :   0.9675 
B( 50-C , 53-H ) :   0.9635 B( 54-C , 55-H ) :   0.9651 B( 54-C , 56-H ) :   0.9655 
B( 54-C , 57-H ) :   0.9635 

-------
TIMINGS
-------

Total SCF time: 0 days 0 hours 50 min 39 sec 

Total time                  ....    3039.105 sec
Sum of individual times     ....    3035.221 sec  ( 99.9%)

Fock matrix formation       ....    3021.903 sec  ( 99.4%)
  XC integration            ....      15.486 sec  (  0.5% of F)
    Basis function eval.    ....       3.067 sec  ( 19.8% of XC)
    Density eval.           ....       5.020 sec  ( 32.4% of XC)
    XC-Functional eval.     ....       0.788 sec  (  5.1% of XC)
    XC-Potential eval.      ....       6.033 sec  ( 39.0% of XC)
Diagonalization             ....       0.582 sec  (  0.0%)
Density matrix formation    ....       0.149 sec  (  0.0%)
Population analysis         ....       0.701 sec  (  0.0%)
Initial guess               ....       1.271 sec  (  0.0%)
Orbital Transformation      ....       0.000 sec  (  0.0%)
Orbital Orthonormalization  ....       1.177 sec  (  0.0%)
DIIS solution               ....       0.317 sec  (  0.0%)
SOSCF solution              ....       2.332 sec  (  0.1%)
Grid generation             ....       7.966 sec  (  0.3%)


-------------------------------------------------------------------------------
                          DFT DISPERSION CORRECTION                            
                                                                               
                              DFTD3 V3.1  Rev 1                                
                              USING zero damping                               
-------------------------------------------------------------------------------
The omegaB97X-D3 functional is recognized. Fit by Chai et al.
Active option DFTDOPT                   ...         3   

molecular C6(AA) [au] = 37852.393807 


            DFT-D V3
 parameters
 s6 scaling factor         :     1.0000 
 rs6 scaling factor        :     1.2810 
 s8 scaling factor         :     1.0000 
 rs8 scaling factor        :     1.0940 
 Damping factor alpha6     :    14.0000 
 Damping factor alpha8     :    16.0000 
 ad hoc parameters k1-k3   :    16.0000     1.3333    -4.0000 

 Edisp/kcal,au: -18.695566083961  -0.029793277811 
 E6   /kcal   :  -9.013065045 
 E8   /kcal   :  -9.682501039 
 % E8         :  51.790360322 

-------------------------   ----------------
Dispersion correction           -0.029793278
-------------------------   ----------------


-------------------------   --------------------
FINAL SINGLE POINT ENERGY     -1595.266665357904
-------------------------   --------------------

                                *** OPTIMIZATION RUN DONE ***

                            ***************************************
                            *     ORCA property calculations      *
                            ***************************************

                                    ---------------------
                                    Active property flags
                                    ---------------------
   (+) Dipole Moment


------------------------------------------------------------------------------
                       ORCA ELECTRIC PROPERTIES CALCULATION
------------------------------------------------------------------------------

Dipole Moment Calculation                       ... on
Quadrupole Moment Calculation                   ... off
Polarizability Calculation                      ... off
GBWName                                         ... Crys_vi.gbw
Electron density file                           ... Crys_vi.scfp
The origin for moment calculation is the CENTER OF MASS  = (-5.053834,  2.187334 -0.417284)

-------------
DIPOLE MOMENT
-------------
                                X             Y             Z
Electronic contribution:      8.27807      -2.68734       1.28321
Nuclear contribution   :    -14.06337       4.82504      -4.49742
                        -----------------------------------------
Total Dipole Moment    :     -5.78530       2.13770      -3.21421
                        -----------------------------------------
Magnitude (a.u.)       :      6.95490
Magnitude (Debye)      :     17.67794



--------------------
Rotational spectrum 
--------------------
 
Rotational constants in cm-1:     0.004579     0.003512     0.002106 
Rotational constants in MHz :   137.281827   105.295282    63.151082 

 Dipole components along the rotational axes: 
x,y,z [a.u.] :     6.580674     0.558679    -2.180179 
x,y,z [Debye]:    16.726745     1.420049    -5.541575 

 
--------------------------------------------------------------------------
[[46555,1],2]: A high-performance Open MPI point-to-point messaging module
was unable to find any relevant network interfaces:

Module: OpenFabrics (openib)
  Host: compute-0-8

Another transport will be used instead, although this may result in
lower performance.

NOTE: You can disable this warning by setting the MCA parameter
btl_base_warn_component_unused to 0.
--------------------------------------------------------------------------
[compute-0-8.local:26955] 3 more processes have sent help message help-mpi-btl-base.txt / btl:no-nics
[compute-0-8.local:26955] Set MCA parameter "orte_base_help_aggregate" to 0 to see all help / error messages

Timings for individual modules:

Sum of individual times         ...   432245.689 sec (=7204.095 min)
GTO integral calculation        ...      221.575 sec (=   3.693 min)   0.1 %
SCF iterations                  ...   253297.426 sec (=4221.624 min)  58.6 %
SCF Gradient evaluation         ...   178672.239 sec (=2977.871 min)  41.3 %
Geometry relaxation             ...       54.448 sec (=   0.907 min)   0.0 %
                             ****ORCA TERMINATED NORMALLY****
TOTAL RUN TIME: 5 days 0 hours 4 minutes 53 seconds 174 msec
