Warning: no access to tty (Bad file descriptor).
Thus no job control in this shell.

                                 *****************
                                 * O   R   C   A *
                                 *****************

           --- An Ab Initio, DFT and Semiempirical electronic structure package ---

                  #######################################################
                  #                        -***-                        #
                  #          Department of theory and spectroscopy      #
                  #               Directorship: Frank Neese             #
                  #        Max Planck Institute fuer Kohlenforschung    #
                  #                Kaiser Wilhelm Platz 1               #
                  #                 D-45470 Muelheim/Ruhr               #
                  #                      Germany                        #
                  #                                                     #
                  #                  All rights reserved                #
                  #                        -***-                        #
                  #######################################################


                         Program Version 4.2.1 -  RELEASE  -


 With contributions from (in alphabetic order):
   Daniel Aravena         : Magnetic Suceptibility
   Michael Atanasov       : Ab Initio Ligand Field Theory (pilot matlab implementation)
   Alexander A. Auer      : GIAO ZORA, VPT2
   Ute Becker             : Parallelization
   Giovanni Bistoni       : ED, misc. LED, open-shell LED, HFLD
   Martin Brehm           : Molecular dynamics
   Dmytro Bykov           : SCF Hessian
   Vijay G. Chilkuri      : MRCI spin determinant printing, contributions to CSF-ICE
   Dipayan Datta          : RHF DLPNO-CCSD density
   Achintya Kumar Dutta   : EOM-CC, STEOM-CC
   Dmitry Ganyushin       : Spin-Orbit,Spin-Spin,Magnetic field MRCI
   Miquel Garcia          : C-PCM Hessian, Gaussian charge scheme
   Yang Guo               : DLPNO-NEVPT2, CIM, IAO-localization
   Andreas Hansen         : Spin unrestricted coupled pair/coupled cluster methods
   Benjamin Helmich-Paris : CASSCF linear response (MC-RPA)
   Lee Huntington         : MR-EOM, pCC
   Robert Izsak           : Overlap fitted RIJCOSX, COSX-SCS-MP3, EOM
   Christian Kollmar      : KDIIS, OOCD, Brueckner-CCSD(T), CCSD density
   Simone Kossmann        : Meta GGA functionals, TD-DFT gradient, OOMP2, MP2 Hessian
   Martin Krupicka        : AUTO-CI
   Lucas Lang             : DCDCAS
   Dagmar Lenk            : GEPOL surface, SMD
   Dimitrios Liakos       : Extrapolation schemes; Compound Job, initial MDCI parallelization
   Dimitrios Manganas     : Further ROCIS development; embedding schemes
   Dimitrios Pantazis     : SARC Basis sets
   Taras Petrenko         : DFT Hessian,TD-DFT gradient, ASA, ECA, R-Raman, ABS, FL, XAS/XES, NRVS
   Peter Pinski           : DLPNO-MP2, DLPNO-MP2 Gradient
   Christoph Reimann      : Effective Core Potentials
   Marius Retegan         : Local ZFS, SOC
   Christoph Riplinger    : Optimizer, TS searches, QM/MM, DLPNO-CCSD(T), (RO)-DLPNO pert. Triples
   Tobias Risthaus        : Range-separated hybrids, TD-DFT gradient, RPA, STAB
   Michael Roemelt        : Original ROCIS implementation
   Masaaki Saitow         : Open-shell DLPNO-CCSD energy and density
   Barbara Sandhoefer     : DKH picture change effects
   Avijit Sen             : IP-ROCIS
   Kantharuban Sivalingam : CASSCF convergence, NEVPT2, FIC-MRCI
   Bernardo de Souza      : ESD, SOC TD-DFT
   Georgi Stoychev        : AutoAux, RI-MP2 NMR
   Willem Van den Heuvel  : Paramagnetic NMR
   Boris Wezisla          : Elementary symmetry handling
   Frank Wennmohs         : Technical directorship


 We gratefully acknowledge several colleagues who have allowed us to
 interface, adapt or use parts of their codes:
   Stefan Grimme, W. Hujo, H. Kruse,             : VdW corrections, initial TS optimization,
                  C. Bannwarth                     DFT functionals, gCP, sTDA/sTD-DF
   Ed Valeev, F. Pavosevic, A. Kumar             : LibInt (2-el integral package), F12 methods
   Garnet Chan, S. Sharma, J. Yang, R. Olivares  : DMRG
   Ulf Ekstrom                                   : XCFun DFT Library
   Mihaly Kallay                                 : mrcc  (arbitrary order and MRCC methods)
   Andreas Klamt, Michael Diedenhofen            : otool_cosmo (COSMO solvation model)
   Jiri Pittner, Ondrej Demel                    : Mk-CCSD
   Frank Weinhold                                : gennbo (NPA and NBO analysis)
   Christopher J. Cramer and Donald G. Truhlar   : smd solvation model
   Lars Goerigk                                  : TD-DFT with DH, B97 family of functionals
   V. Asgeirsson, H. Jonsson                     : NEB implementation
   FAccTs GmbH                                   : IRC, NEB, NEB-TS, Multilevel, MM, QM/MM, CI optimization
   S Lehtola, MJT Oliveira, MAL Marques          : LibXC Library


 Your calculation uses the libint2 library for the computation of 2-el integrals
 For citations please refer to: http://libint.valeyev.net

 Your ORCA version has been built with support for libXC version: 4.2.3
 For citations please refer to: https://tddft.org/programs/libxc/

 This ORCA versions uses:
   CBLAS   interface :  Fast vector & matrix operations
   LAPACKE interface :  Fast linear algebra routines
   SCALAPACK package :  Parallel linear algebra routines


[file orca_tools/Tool-Scanner/qcscan1.cpp, line 102]: 
	 Unknown identifier in CPCM block line    7  : 
	 Last token : Â
[file orca_tools/Tool-Scanner/qcscan1.cpp, line 102]: 
	 Unknown identifier in CPCM block line    7  : 
	 Last token : Â
Warning: no access to tty (Bad file descriptor).
Thus no job control in this shell.

                                 *****************
                                 * O   R   C   A *
                                 *****************

           --- An Ab Initio, DFT and Semiempirical electronic structure package ---

                  #######################################################
                  #                        -***-                        #
                  #          Department of theory and spectroscopy      #
                  #               Directorship: Frank Neese             #
                  #        Max Planck Institute fuer Kohlenforschung    #
                  #                Kaiser Wilhelm Platz 1               #
                  #                 D-45470 Muelheim/Ruhr               #
                  #                      Germany                        #
                  #                                                     #
                  #                  All rights reserved                #
                  #                        -***-                        #
                  #######################################################


                         Program Version 4.2.1 -  RELEASE  -


 With contributions from (in alphabetic order):
   Daniel Aravena         : Magnetic Suceptibility
   Michael Atanasov       : Ab Initio Ligand Field Theory (pilot matlab implementation)
   Alexander A. Auer      : GIAO ZORA, VPT2
   Ute Becker             : Parallelization
   Giovanni Bistoni       : ED, misc. LED, open-shell LED, HFLD
   Martin Brehm           : Molecular dynamics
   Dmytro Bykov           : SCF Hessian
   Vijay G. Chilkuri      : MRCI spin determinant printing, contributions to CSF-ICE
   Dipayan Datta          : RHF DLPNO-CCSD density
   Achintya Kumar Dutta   : EOM-CC, STEOM-CC
   Dmitry Ganyushin       : Spin-Orbit,Spin-Spin,Magnetic field MRCI
   Miquel Garcia          : C-PCM Hessian, Gaussian charge scheme
   Yang Guo               : DLPNO-NEVPT2, CIM, IAO-localization
   Andreas Hansen         : Spin unrestricted coupled pair/coupled cluster methods
   Benjamin Helmich-Paris : CASSCF linear response (MC-RPA)
   Lee Huntington         : MR-EOM, pCC
   Robert Izsak           : Overlap fitted RIJCOSX, COSX-SCS-MP3, EOM
   Christian Kollmar      : KDIIS, OOCD, Brueckner-CCSD(T), CCSD density
   Simone Kossmann        : Meta GGA functionals, TD-DFT gradient, OOMP2, MP2 Hessian
   Martin Krupicka        : AUTO-CI
   Lucas Lang             : DCDCAS
   Dagmar Lenk            : GEPOL surface, SMD
   Dimitrios Liakos       : Extrapolation schemes; Compound Job, initial MDCI parallelization
   Dimitrios Manganas     : Further ROCIS development; embedding schemes
   Dimitrios Pantazis     : SARC Basis sets
   Taras Petrenko         : DFT Hessian,TD-DFT gradient, ASA, ECA, R-Raman, ABS, FL, XAS/XES, NRVS
   Peter Pinski           : DLPNO-MP2, DLPNO-MP2 Gradient
   Christoph Reimann      : Effective Core Potentials
   Marius Retegan         : Local ZFS, SOC
   Christoph Riplinger    : Optimizer, TS searches, QM/MM, DLPNO-CCSD(T), (RO)-DLPNO pert. Triples
   Tobias Risthaus        : Range-separated hybrids, TD-DFT gradient, RPA, STAB
   Michael Roemelt        : Original ROCIS implementation
   Masaaki Saitow         : Open-shell DLPNO-CCSD energy and density
   Barbara Sandhoefer     : DKH picture change effects
   Avijit Sen             : IP-ROCIS
   Kantharuban Sivalingam : CASSCF convergence, NEVPT2, FIC-MRCI
   Bernardo de Souza      : ESD, SOC TD-DFT
   Georgi Stoychev        : AutoAux, RI-MP2 NMR
   Willem Van den Heuvel  : Paramagnetic NMR
   Boris Wezisla          : Elementary symmetry handling
   Frank Wennmohs         : Technical directorship


 We gratefully acknowledge several colleagues who have allowed us to
 interface, adapt or use parts of their codes:
   Stefan Grimme, W. Hujo, H. Kruse,             : VdW corrections, initial TS optimization,
                  C. Bannwarth                     DFT functionals, gCP, sTDA/sTD-DF
   Ed Valeev, F. Pavosevic, A. Kumar             : LibInt (2-el integral package), F12 methods
   Garnet Chan, S. Sharma, J. Yang, R. Olivares  : DMRG
   Ulf Ekstrom                                   : XCFun DFT Library
   Mihaly Kallay                                 : mrcc  (arbitrary order and MRCC methods)
   Andreas Klamt, Michael Diedenhofen            : otool_cosmo (COSMO solvation model)
   Jiri Pittner, Ondrej Demel                    : Mk-CCSD
   Frank Weinhold                                : gennbo (NPA and NBO analysis)
   Christopher J. Cramer and Donald G. Truhlar   : smd solvation model
   Lars Goerigk                                  : TD-DFT with DH, B97 family of functionals
   V. Asgeirsson, H. Jonsson                     : NEB implementation
   FAccTs GmbH                                   : IRC, NEB, NEB-TS, Multilevel, MM, QM/MM, CI optimization
   S Lehtola, MJT Oliveira, MAL Marques          : LibXC Library


 Your calculation uses the libint2 library for the computation of 2-el integrals
 For citations please refer to: http://libint.valeyev.net

 Your ORCA version has been built with support for libXC version: 4.2.3
 For citations please refer to: https://tddft.org/programs/libxc/

 This ORCA versions uses:
   CBLAS   interface :  Fast vector & matrix operations
   LAPACKE interface :  Fast linear algebra routines
   SCALAPACK package :  Parallel linear algebra routines


[file orca_tools/Tool-Scanner/qcscan1.cpp, line 102]: 
	 Unknown identifier in CPCM block line    7  : 
	 Last token : Â
[file orca_tools/Tool-Scanner/qcscan1.cpp, line 102]: 
	 Unknown identifier in CPCM block line    7  : 
	 Last token : Â
Warning: no access to tty (Bad file descriptor).
Thus no job control in this shell.

                                 *****************
                                 * O   R   C   A *
                                 *****************

           --- An Ab Initio, DFT and Semiempirical electronic structure package ---

                  #######################################################
                  #                        -***-                        #
                  #          Department of theory and spectroscopy      #
                  #               Directorship: Frank Neese             #
                  #        Max Planck Institute fuer Kohlenforschung    #
                  #                Kaiser Wilhelm Platz 1               #
                  #                 D-45470 Muelheim/Ruhr               #
                  #                      Germany                        #
                  #                                                     #
                  #                  All rights reserved                #
                  #                        -***-                        #
                  #######################################################


                         Program Version 4.2.1 -  RELEASE  -


 With contributions from (in alphabetic order):
   Daniel Aravena         : Magnetic Suceptibility
   Michael Atanasov       : Ab Initio Ligand Field Theory (pilot matlab implementation)
   Alexander A. Auer      : GIAO ZORA, VPT2
   Ute Becker             : Parallelization
   Giovanni Bistoni       : ED, misc. LED, open-shell LED, HFLD
   Martin Brehm           : Molecular dynamics
   Dmytro Bykov           : SCF Hessian
   Vijay G. Chilkuri      : MRCI spin determinant printing, contributions to CSF-ICE
   Dipayan Datta          : RHF DLPNO-CCSD density
   Achintya Kumar Dutta   : EOM-CC, STEOM-CC
   Dmitry Ganyushin       : Spin-Orbit,Spin-Spin,Magnetic field MRCI
   Miquel Garcia          : C-PCM Hessian, Gaussian charge scheme
   Yang Guo               : DLPNO-NEVPT2, CIM, IAO-localization
   Andreas Hansen         : Spin unrestricted coupled pair/coupled cluster methods
   Benjamin Helmich-Paris : CASSCF linear response (MC-RPA)
   Lee Huntington         : MR-EOM, pCC
   Robert Izsak           : Overlap fitted RIJCOSX, COSX-SCS-MP3, EOM
   Christian Kollmar      : KDIIS, OOCD, Brueckner-CCSD(T), CCSD density
   Simone Kossmann        : Meta GGA functionals, TD-DFT gradient, OOMP2, MP2 Hessian
   Martin Krupicka        : AUTO-CI
   Lucas Lang             : DCDCAS
   Dagmar Lenk            : GEPOL surface, SMD
   Dimitrios Liakos       : Extrapolation schemes; Compound Job, initial MDCI parallelization
   Dimitrios Manganas     : Further ROCIS development; embedding schemes
   Dimitrios Pantazis     : SARC Basis sets
   Taras Petrenko         : DFT Hessian,TD-DFT gradient, ASA, ECA, R-Raman, ABS, FL, XAS/XES, NRVS
   Peter Pinski           : DLPNO-MP2, DLPNO-MP2 Gradient
   Christoph Reimann      : Effective Core Potentials
   Marius Retegan         : Local ZFS, SOC
   Christoph Riplinger    : Optimizer, TS searches, QM/MM, DLPNO-CCSD(T), (RO)-DLPNO pert. Triples
   Tobias Risthaus        : Range-separated hybrids, TD-DFT gradient, RPA, STAB
   Michael Roemelt        : Original ROCIS implementation
   Masaaki Saitow         : Open-shell DLPNO-CCSD energy and density
   Barbara Sandhoefer     : DKH picture change effects
   Avijit Sen             : IP-ROCIS
   Kantharuban Sivalingam : CASSCF convergence, NEVPT2, FIC-MRCI
   Bernardo de Souza      : ESD, SOC TD-DFT
   Georgi Stoychev        : AutoAux, RI-MP2 NMR
   Willem Van den Heuvel  : Paramagnetic NMR
   Boris Wezisla          : Elementary symmetry handling
   Frank Wennmohs         : Technical directorship


 We gratefully acknowledge several colleagues who have allowed us to
 interface, adapt or use parts of their codes:
   Stefan Grimme, W. Hujo, H. Kruse,             : VdW corrections, initial TS optimization,
                  C. Bannwarth                     DFT functionals, gCP, sTDA/sTD-DF
   Ed Valeev, F. Pavosevic, A. Kumar             : LibInt (2-el integral package), F12 methods
   Garnet Chan, S. Sharma, J. Yang, R. Olivares  : DMRG
   Ulf Ekstrom                                   : XCFun DFT Library
   Mihaly Kallay                                 : mrcc  (arbitrary order and MRCC methods)
   Andreas Klamt, Michael Diedenhofen            : otool_cosmo (COSMO solvation model)
   Jiri Pittner, Ondrej Demel                    : Mk-CCSD
   Frank Weinhold                                : gennbo (NPA and NBO analysis)
   Christopher J. Cramer and Donald G. Truhlar   : smd solvation model
   Lars Goerigk                                  : TD-DFT with DH, B97 family of functionals
   V. Asgeirsson, H. Jonsson                     : NEB implementation
   FAccTs GmbH                                   : IRC, NEB, NEB-TS, Multilevel, MM, QM/MM, CI optimization
   S Lehtola, MJT Oliveira, MAL Marques          : LibXC Library


 Your calculation uses the libint2 library for the computation of 2-el integrals
 For citations please refer to: http://libint.valeyev.net

 Your ORCA version has been built with support for libXC version: 4.2.3
 For citations please refer to: https://tddft.org/programs/libxc/

 This ORCA versions uses:
   CBLAS   interface :  Fast vector & matrix operations
   LAPACKE interface :  Fast linear algebra routines
   SCALAPACK package :  Parallel linear algebra routines


[file orca_tools/Tool-Scanner/qcscan1.cpp, line 102]: 
	 Unknown identifier in CPCM block line    7  : 
	 Last token : Â
[file orca_tools/Tool-Scanner/qcscan1.cpp, line 102]: 
	 Unknown identifier in CPCM block line    7  : 
	 Last token : Â
Warning: no access to tty (Bad file descriptor).
Thus no job control in this shell.

                                 *****************
                                 * O   R   C   A *
                                 *****************

           --- An Ab Initio, DFT and Semiempirical electronic structure package ---

                  #######################################################
                  #                        -***-                        #
                  #          Department of theory and spectroscopy      #
                  #               Directorship: Frank Neese             #
                  #        Max Planck Institute fuer Kohlenforschung    #
                  #                Kaiser Wilhelm Platz 1               #
                  #                 D-45470 Muelheim/Ruhr               #
                  #                      Germany                        #
                  #                                                     #
                  #                  All rights reserved                #
                  #                        -***-                        #
                  #######################################################


                         Program Version 4.2.1 -  RELEASE  -


 With contributions from (in alphabetic order):
   Daniel Aravena         : Magnetic Suceptibility
   Michael Atanasov       : Ab Initio Ligand Field Theory (pilot matlab implementation)
   Alexander A. Auer      : GIAO ZORA, VPT2
   Ute Becker             : Parallelization
   Giovanni Bistoni       : ED, misc. LED, open-shell LED, HFLD
   Martin Brehm           : Molecular dynamics
   Dmytro Bykov           : SCF Hessian
   Vijay G. Chilkuri      : MRCI spin determinant printing, contributions to CSF-ICE
   Dipayan Datta          : RHF DLPNO-CCSD density
   Achintya Kumar Dutta   : EOM-CC, STEOM-CC
   Dmitry Ganyushin       : Spin-Orbit,Spin-Spin,Magnetic field MRCI
   Miquel Garcia          : C-PCM Hessian, Gaussian charge scheme
   Yang Guo               : DLPNO-NEVPT2, CIM, IAO-localization
   Andreas Hansen         : Spin unrestricted coupled pair/coupled cluster methods
   Benjamin Helmich-Paris : CASSCF linear response (MC-RPA)
   Lee Huntington         : MR-EOM, pCC
   Robert Izsak           : Overlap fitted RIJCOSX, COSX-SCS-MP3, EOM
   Christian Kollmar      : KDIIS, OOCD, Brueckner-CCSD(T), CCSD density
   Simone Kossmann        : Meta GGA functionals, TD-DFT gradient, OOMP2, MP2 Hessian
   Martin Krupicka        : AUTO-CI
   Lucas Lang             : DCDCAS
   Dagmar Lenk            : GEPOL surface, SMD
   Dimitrios Liakos       : Extrapolation schemes; Compound Job, initial MDCI parallelization
   Dimitrios Manganas     : Further ROCIS development; embedding schemes
   Dimitrios Pantazis     : SARC Basis sets
   Taras Petrenko         : DFT Hessian,TD-DFT gradient, ASA, ECA, R-Raman, ABS, FL, XAS/XES, NRVS
   Peter Pinski           : DLPNO-MP2, DLPNO-MP2 Gradient
   Christoph Reimann      : Effective Core Potentials
   Marius Retegan         : Local ZFS, SOC
   Christoph Riplinger    : Optimizer, TS searches, QM/MM, DLPNO-CCSD(T), (RO)-DLPNO pert. Triples
   Tobias Risthaus        : Range-separated hybrids, TD-DFT gradient, RPA, STAB
   Michael Roemelt        : Original ROCIS implementation
   Masaaki Saitow         : Open-shell DLPNO-CCSD energy and density
   Barbara Sandhoefer     : DKH picture change effects
   Avijit Sen             : IP-ROCIS
   Kantharuban Sivalingam : CASSCF convergence, NEVPT2, FIC-MRCI
   Bernardo de Souza      : ESD, SOC TD-DFT
   Georgi Stoychev        : AutoAux, RI-MP2 NMR
   Willem Van den Heuvel  : Paramagnetic NMR
   Boris Wezisla          : Elementary symmetry handling
   Frank Wennmohs         : Technical directorship


 We gratefully acknowledge several colleagues who have allowed us to
 interface, adapt or use parts of their codes:
   Stefan Grimme, W. Hujo, H. Kruse,             : VdW corrections, initial TS optimization,
                  C. Bannwarth                     DFT functionals, gCP, sTDA/sTD-DF
   Ed Valeev, F. Pavosevic, A. Kumar             : LibInt (2-el integral package), F12 methods
   Garnet Chan, S. Sharma, J. Yang, R. Olivares  : DMRG
   Ulf Ekstrom                                   : XCFun DFT Library
   Mihaly Kallay                                 : mrcc  (arbitrary order and MRCC methods)
   Andreas Klamt, Michael Diedenhofen            : otool_cosmo (COSMO solvation model)
   Jiri Pittner, Ondrej Demel                    : Mk-CCSD
   Frank Weinhold                                : gennbo (NPA and NBO analysis)
   Christopher J. Cramer and Donald G. Truhlar   : smd solvation model
   Lars Goerigk                                  : TD-DFT with DH, B97 family of functionals
   V. Asgeirsson, H. Jonsson                     : NEB implementation
   FAccTs GmbH                                   : IRC, NEB, NEB-TS, Multilevel, MM, QM/MM, CI optimization
   S Lehtola, MJT Oliveira, MAL Marques          : LibXC Library


 Your calculation uses the libint2 library for the computation of 2-el integrals
 For citations please refer to: http://libint.valeyev.net

 Your ORCA version has been built with support for libXC version: 4.2.3
 For citations please refer to: https://tddft.org/programs/libxc/

 This ORCA versions uses:
   CBLAS   interface :  Fast vector & matrix operations
   LAPACKE interface :  Fast linear algebra routines
   SCALAPACK package :  Parallel linear algebra routines


[file orca_tools/Tool-Scanner/qcscan1.cpp, line 102]: 
	 Unknown identifier in CPCM block line    7  : 
	 Last token : Â
[file orca_tools/Tool-Scanner/qcscan1.cpp, line 102]: 
	 Unknown identifier in CPCM block line    7  : 
	 Last token : Â
Warning: no access to tty (Bad file descriptor).
Thus no job control in this shell.

                                 *****************
                                 * O   R   C   A *
                                 *****************

           --- An Ab Initio, DFT and Semiempirical electronic structure package ---

                  #######################################################
                  #                        -***-                        #
                  #          Department of theory and spectroscopy      #
                  #               Directorship: Frank Neese             #
                  #        Max Planck Institute fuer Kohlenforschung    #
                  #                Kaiser Wilhelm Platz 1               #
                  #                 D-45470 Muelheim/Ruhr               #
                  #                      Germany                        #
                  #                                                     #
                  #                  All rights reserved                #
                  #                        -***-                        #
                  #######################################################


                         Program Version 4.2.1 -  RELEASE  -


 With contributions from (in alphabetic order):
   Daniel Aravena         : Magnetic Suceptibility
   Michael Atanasov       : Ab Initio Ligand Field Theory (pilot matlab implementation)
   Alexander A. Auer      : GIAO ZORA, VPT2
   Ute Becker             : Parallelization
   Giovanni Bistoni       : ED, misc. LED, open-shell LED, HFLD
   Martin Brehm           : Molecular dynamics
   Dmytro Bykov           : SCF Hessian
   Vijay G. Chilkuri      : MRCI spin determinant printing, contributions to CSF-ICE
   Dipayan Datta          : RHF DLPNO-CCSD density
   Achintya Kumar Dutta   : EOM-CC, STEOM-CC
   Dmitry Ganyushin       : Spin-Orbit,Spin-Spin,Magnetic field MRCI
   Miquel Garcia          : C-PCM Hessian, Gaussian charge scheme
   Yang Guo               : DLPNO-NEVPT2, CIM, IAO-localization
   Andreas Hansen         : Spin unrestricted coupled pair/coupled cluster methods
   Benjamin Helmich-Paris : CASSCF linear response (MC-RPA)
   Lee Huntington         : MR-EOM, pCC
   Robert Izsak           : Overlap fitted RIJCOSX, COSX-SCS-MP3, EOM
   Christian Kollmar      : KDIIS, OOCD, Brueckner-CCSD(T), CCSD density
   Simone Kossmann        : Meta GGA functionals, TD-DFT gradient, OOMP2, MP2 Hessian
   Martin Krupicka        : AUTO-CI
   Lucas Lang             : DCDCAS
   Dagmar Lenk            : GEPOL surface, SMD
   Dimitrios Liakos       : Extrapolation schemes; Compound Job, initial MDCI parallelization
   Dimitrios Manganas     : Further ROCIS development; embedding schemes
   Dimitrios Pantazis     : SARC Basis sets
   Taras Petrenko         : DFT Hessian,TD-DFT gradient, ASA, ECA, R-Raman, ABS, FL, XAS/XES, NRVS
   Peter Pinski           : DLPNO-MP2, DLPNO-MP2 Gradient
   Christoph Reimann      : Effective Core Potentials
   Marius Retegan         : Local ZFS, SOC
   Christoph Riplinger    : Optimizer, TS searches, QM/MM, DLPNO-CCSD(T), (RO)-DLPNO pert. Triples
   Tobias Risthaus        : Range-separated hybrids, TD-DFT gradient, RPA, STAB
   Michael Roemelt        : Original ROCIS implementation
   Masaaki Saitow         : Open-shell DLPNO-CCSD energy and density
   Barbara Sandhoefer     : DKH picture change effects
   Avijit Sen             : IP-ROCIS
   Kantharuban Sivalingam : CASSCF convergence, NEVPT2, FIC-MRCI
   Bernardo de Souza      : ESD, SOC TD-DFT
   Georgi Stoychev        : AutoAux, RI-MP2 NMR
   Willem Van den Heuvel  : Paramagnetic NMR
   Boris Wezisla          : Elementary symmetry handling
   Frank Wennmohs         : Technical directorship


 We gratefully acknowledge several colleagues who have allowed us to
 interface, adapt or use parts of their codes:
   Stefan Grimme, W. Hujo, H. Kruse,             : VdW corrections, initial TS optimization,
                  C. Bannwarth                     DFT functionals, gCP, sTDA/sTD-DF
   Ed Valeev, F. Pavosevic, A. Kumar             : LibInt (2-el integral package), F12 methods
   Garnet Chan, S. Sharma, J. Yang, R. Olivares  : DMRG
   Ulf Ekstrom                                   : XCFun DFT Library
   Mihaly Kallay                                 : mrcc  (arbitrary order and MRCC methods)
   Andreas Klamt, Michael Diedenhofen            : otool_cosmo (COSMO solvation model)
   Jiri Pittner, Ondrej Demel                    : Mk-CCSD
   Frank Weinhold                                : gennbo (NPA and NBO analysis)
   Christopher J. Cramer and Donald G. Truhlar   : smd solvation model
   Lars Goerigk                                  : TD-DFT with DH, B97 family of functionals
   V. Asgeirsson, H. Jonsson                     : NEB implementation
   FAccTs GmbH                                   : IRC, NEB, NEB-TS, Multilevel, MM, QM/MM, CI optimization
   S Lehtola, MJT Oliveira, MAL Marques          : LibXC Library


 Your calculation uses the libint2 library for the computation of 2-el integrals
 For citations please refer to: http://libint.valeyev.net

 Your ORCA version has been built with support for libXC version: 4.2.3
 For citations please refer to: https://tddft.org/programs/libxc/

 This ORCA versions uses:
   CBLAS   interface :  Fast vector & matrix operations
   LAPACKE interface :  Fast linear algebra routines
   SCALAPACK package :  Parallel linear algebra routines


Your calculation utilizes the atom-pairwise dispersion correction
with the zero-damping scheme (D30)
Cite in your paper:
S.Grimme, J.Antony, S.Ehrlich and H.Krieg, J.Chem.Phys., 132, (2010), 154104 
   

XCFun DFT library Copyright 2009-2010 Ulf Ekstrom and contributors.
See http://admol.org/xcfun for more information. This is free soft-
ware; see the source code for copying conditions. There is ABSOLUTELY
NO WARRANTY; not even for MERCHANTABILITY or FITNESS FOR A PARTICULAR
PURPOSE. For details see the documentation. Scientific users of this 
library should cite U. Ekstrom, L. Visscher, R. Bast, A. J. Thorvald-
sen and K. Ruud; J.Chem.Theor.Comp. 2010, DOI: 10.1021/ct100117s
XCFun Version 0.99 
----- Orbital basis set information -----
Your calculation utilizes the basis: def2-TZVP
   F. Weigend and R. Ahlrichs, Phys. Chem. Chem. Phys. 7, 3297 (2005).

----- AuxJ basis set information -----
Your calculation utilizes the auxiliary basis: def2/J
   F. Weigend, Phys. Chem. Chem. Phys. 8, 1057 (2006).

================================================================================
                                        WARNINGS
                       Please study these warnings very carefully!
================================================================================


WARNING: Geometry Optimization
  ===> : Switching off AutoStart
         For restart on a previous wavefunction, please use MOREAD

INFO   : the flag for use of LIBINT has been found!

================================================================================
                                       INPUT FILE
================================================================================
NAME = CN6-CP.inp
|  1> # avogadro generated ORCA input file 
|  2> # Basic Mode
|  3> # 
|  4> ! wB97X-D3 OPT def2-TZVP def2/J CPCM
|  5> %cpcm
|  6>   epsilon 3
|  7> end
|  8> %pal
|  9>  nprocs 4
| 10> end
| 11>  
| 12> 
| 13> * xyz 0 1
| 14>    N       -0.95971       -0.91434       -0.09559
| 15>    C        0.30126       -0.91434       -0.09559
| 16>    C        1.82126       -0.91434       -0.09559
| 17>    C        2.51846       -1.05884        1.12920
| 18>    N        3.10563       -1.17565        2.12113
| 19>    C        2.51204       -0.78130       -1.29619
| 20>    C        2.51485       -0.61371       -2.75091
| 21>    C        1.82291       -0.46863       -3.95660
| 22>    C        2.58363       -0.31977       -5.26409
| 23>    N        3.21470       -0.19627       -6.34877
| 24>    C        0.30295       -0.45811       -3.95621
| 25>    N       -0.95799       -0.44939       -3.95589
| 26>    C        3.78398       -0.70769       -2.02107
| 27>    C        5.18811       -0.71950       -2.02718
| 28>    C        5.90532       -0.58591       -3.24143
| 29>    N        6.47471       -0.47549       -4.24439
| 30>    C        5.94714       -0.87890       -0.71994
| 31>    N        6.57682       -1.01114        0.36452
| 32> *
| 33> 
| 34> 
| 35>                          ****END OF INPUT****
================================================================================

                       *****************************
                       * Geometry Optimization Run *
                       *****************************

Geometry optimization settings:
Update method            Update   .... BFGS
Choice of coordinates    CoordSys .... Z-matrix Internals
Initial Hessian          InHess   .... Almoef's Model

Convergence Tolerances:
Energy Change            TolE     ....  5.0000e-06 Eh
Max. Gradient            TolMAXG  ....  3.0000e-04 Eh/bohr
RMS Gradient             TolRMSG  ....  1.0000e-04 Eh/bohr
Max. Displacement        TolMAXD  ....  4.0000e-03 bohr
RMS Displacement         TolRMSD  ....  2.0000e-03 bohr
Strict Convergence                ....  False
------------------------------------------------------------------------------
                        ORCA OPTIMIZATION COORDINATE SETUP
------------------------------------------------------------------------------

The optimization will be done in new redundant internal coordinates
Making redundant internal coordinates   ...  (new redundants) done
Evaluating the initial hessian          ...  (Almloef) done
Evaluating the coordinates              ...  done
Calculating the B-matrix                .... done
Calculating the G-matrix                .... done
Diagonalizing the G-matrix              .... done
Small eigenvalue found = 1.060e-02
Small eigenvalue found = 1.103e-02
The first mode is                       ....   21
The number of degrees of freedom        ....   48

    -----------------------------------------------------------------
                    Redundant Internal Coordinates


    -----------------------------------------------------------------
         Definition                    Initial Value    Approx d2E/dq
    -----------------------------------------------------------------
      1. B(C   1,N   0)                  1.2610         0.898948   
      2. B(C   2,C   1)                  1.5200         0.387554   
      3. B(C   3,C   2)                  1.4167         0.566393   
      4. B(N   4,C   3)                  1.1586         1.309393   
      5. B(C   5,C   2)                  1.3915         0.621326   
      6. B(C   6,C   5)                  1.4643         0.475474   
      7. B(C   7,C   6)                  1.3977         0.607409   
      8. B(C   8,C   7)                  1.5200         0.387561   
      9. B(N   9,C   8)                  1.2610         0.898965   
     10. B(C  10,C   7)                  1.5200         0.387559   
     11. B(N  11,C  10)                  1.2610         0.898947   
     12. B(C  12,C   6)                  1.4670         0.470799   
     13. B(C  12,C   5)                  1.4658         0.472861   
     14. B(C  13,C  12)                  1.4042         0.593054   
     15. B(C  14,C  13)                  1.4166         0.566716   
     16. B(N  15,C  14)                  1.1586         1.309418   
     17. B(C  16,C  13)                  1.5200         0.387548   
     18. B(N  17,C  16)                  1.2610         0.898958   
     19. L(N   0,C   1,C   2,C   3, 2) 180.0000         0.423692   
     20. L(N   0,C   1,C   2,C   3, 1) 180.0000         0.423692   
     21. A(C   1,C   2,C   3)          119.4803         0.392967   
     22. A(C   3,C   2,C   5)          120.7548         0.427239   
     23. A(C   1,C   2,C   5)          119.7636         0.399403   
     24. L(C   2,C   3,N   4,C   1, 1) 180.9703         0.486111   
     25. L(C   2,C   3,N   4,C   1, 2) 180.0211         0.486111   
     26. A(C   6,C   5,C  12)           60.0876         0.394621   
     27. A(C   2,C   5,C  12)          149.5670         0.413700   
     28. A(C   2,C   5,C   6)          150.3454         0.414105   
     29. A(C   7,C   6,C  12)          149.7781         0.411720   
     30. A(C   5,C   6,C  12)           60.0069         0.394319   
     31. A(C   5,C   6,C   7)          150.2149         0.412442   
     32. A(C   8,C   7,C  10)          120.0004         0.367954   
     33. A(C   6,C   7,C  10)          119.7059         0.397816   
     34. A(C   6,C   7,C   8)          120.2937         0.397817   
     35. L(C   7,C   8,N   9,C  10, 2) 179.9994         0.423695   
     36. L(C   7,C   8,N   9,C  10, 1) 179.9994         0.423695   
     37. L(C   7,C  10,N  11,C   8, 1) 179.9999         0.423693   
     38. L(C   7,C  10,N  11,C   8, 2) 179.9993         0.423693   
     39. A(C   6,C  12,C  13)          149.7044         0.409977   
     40. A(C   5,C  12,C  13)          150.3900         0.410295   
     41. A(C   5,C  12,C   6)           59.9055         0.393938   
     42. A(C  14,C  13,C  16)          119.6209         0.393005   
     43. A(C  12,C  13,C  16)          119.7673         0.396147   
     44. A(C  12,C  13,C  14)          120.6118         0.423735   
     45. L(C  13,C  14,N  15,C  16, 2) 179.9846         0.486164   
     46. L(C  13,C  14,N  15,C  16, 1) 180.9819         0.486164   
     47. L(C  13,C  16,N  17,C  14, 2) 180.0005         0.423692   
     48. L(C  13,C  16,N  17,C  14, 1) 179.9999         0.423692   
     49. D(C   6,C   5,C   2,C   3)   -179.9083         0.026720   
     50. D(C  12,C   5,C   2,C   1)   -179.4850         0.026720   
     51. D(C  12,C   5,C   2,C   3)      0.1044         0.026720   
     52. D(C   6,C   5,C   2,C   1)      0.5023         0.026720   
     53. D(C   7,C   6,C   5,C  12)   -179.9369         0.015393   
     54. D(C  12,C   6,C   5,C   2)   -179.9926         0.015393   
     55. D(C   7,C   6,C   5,C   2)      0.0705         0.015393   
     56. D(C  10,C   7,C   6,C   5)     -0.1278         0.025469   
     57. D(C   8,C   7,C   6,C  12)     -0.1073         0.025469   
     58. D(C  10,C   7,C   6,C  12)    179.9809         0.025469   
     59. D(C   8,C   7,C   6,C   5)    179.7840         0.025469   
     60. D(C  13,C  12,C   5,C   6)   -179.8709         0.015225   
     61. D(C  13,C  12,C   5,C   2)      0.1219         0.015225   
     62. D(C   5,C  12,C   6,C   7)    179.9377         0.015093   
     63. D(C   6,C  12,C   5,C   2)    179.9927         0.015225   
     64. D(C  13,C  12,C   6,C   7)     -0.1888         0.015093   
     65. D(C  13,C  12,C   6,C   5)    179.8735         0.015093   
     66. D(C  16,C  13,C  12,C   6)   -179.8036         0.024217   
     67. D(C  16,C  13,C  12,C   5)     -0.0251         0.024217   
     68. D(C  14,C  13,C  12,C   6)      0.1130         0.024217   
     69. D(C  14,C  13,C  12,C   5)    179.8916         0.024217   
    -----------------------------------------------------------------

Number of atoms                         .... 18
Number of degrees of freedom            .... 69

         *************************************************************
         *                GEOMETRY OPTIMIZATION CYCLE   1            *
         *************************************************************
---------------------------------
CARTESIAN COORDINATES (ANGSTROEM)
---------------------------------
  N     -0.959710   -0.914340   -0.095590
  C      0.301260   -0.914340   -0.095590
  C      1.821260   -0.914340   -0.095590
  C      2.518460   -1.058840    1.129200
  N      3.105630   -1.175650    2.121130
  C      2.512040   -0.781300   -1.296190
  C      2.514850   -0.613710   -2.750910
  C      1.822910   -0.468630   -3.956600
  C      2.583630   -0.319770   -5.264090
  N      3.214700   -0.196270   -6.348770
  C      0.302950   -0.458110   -3.956210
  N     -0.957990   -0.449390   -3.955890
  C      3.783980   -0.707690   -2.021070
  C      5.188110   -0.719500   -2.027180
  C      5.905320   -0.585910   -3.241430
  N      6.474710   -0.475490   -4.244390
  C      5.947140   -0.878900   -0.719940
  N      6.576820   -1.011140    0.364520

----------------------------
CARTESIAN COORDINATES (A.U.)
----------------------------
  NO LB      ZA    FRAG     MASS         X           Y           Z
   0 N     7.0000    0    14.007   -1.813589   -1.727852   -0.180639
   1 C     6.0000    0    12.011    0.569299   -1.727852   -0.180639
   2 C     6.0000    0    12.011    3.441683   -1.727852   -0.180639
   3 C     6.0000    0    12.011    4.759200   -2.000918    2.133879
   4 N     7.0000    0    14.007    5.868790   -2.221657    4.008355
   5 C     6.0000    0    12.011    4.747068   -1.476443   -2.449444
   6 C     6.0000    0    12.011    4.752378   -1.159744   -5.198467
   7 C     6.0000    0    12.011    3.444801   -0.885582   -7.476890
   8 C     6.0000    0    12.011    4.882353   -0.604278   -9.947688
   9 N     7.0000    0    14.007    6.074903   -0.370897  -11.997437
  10 C     6.0000    0    12.011    0.572493   -0.865702   -7.476153
  11 N     7.0000    0    14.007   -1.810339   -0.849224   -7.475549
  12 C     6.0000    0    12.011    7.150686   -1.337340   -3.819269
  13 C     6.0000    0    12.011    9.804107   -1.359658   -3.830815
  14 C     6.0000    0    12.011   11.159438   -1.107209   -6.125415
  15 N     7.0000    0    14.007   12.235429   -0.898546   -8.020735
  16 C     6.0000    0    12.011   11.238466   -1.660880   -1.360489
  17 N     7.0000    0    14.007   12.428389   -1.910778    0.688843

--------------------------------
INTERNAL COORDINATES (ANGSTROEM)
--------------------------------
 N      0   0   0     0.000000000000     0.00000000     0.00000000
 C      1   0   0     1.260970000000     0.00000000     0.00000000
 C      2   1   0     1.520000000000   180.00000000     0.00000000
 C      3   2   1     1.416714026930   119.48032946     0.00000000
 N      4   3   2     1.158593246096   179.02964686   180.63023394
 C      3   2   1     1.391516083270   119.76360049     0.00000000
 C      6   3   2     1.464344420756   150.34540145     0.50231459
 C      7   6   3     1.397682920444   150.21491908     0.07054671
 C      8   7   6     1.519994841472   120.29367203   179.78403828
 N      9   8   7     1.260964827939   179.99929583   207.55519285
 C      8   7   6     1.519996455292   119.70585397   359.87224291
 N     11   8   7     1.260970191717   179.99963295   250.65212097
 C      6   3   2     1.465844742836   149.56701289   180.51501797
 C     13   6   3     1.404192958642   150.38998627     0.12186208
 C     14  13   6     1.416559047375   120.61177516   179.89155110
 N     15  14  13     1.158588067477   179.01805506   359.62921739
 C     14  13   6     1.520003723186   119.76726142   359.97492576
 N     17  14  13     1.260967014477   179.99973408   123.17704365

---------------------------
INTERNAL COORDINATES (A.U.)
---------------------------
 N      0   0   0     0.000000000000     0.00000000     0.00000000
 C      1   0   0     2.382887963091     0.00000000     0.00000000
 C      2   1   0     2.872383723560   180.00000000     0.00000000
 C      3   2   1     2.677201520982   119.48032946     0.00000000
 N      4   3   2     2.189423935733   179.02964686   180.63023394
 C      3   2   1     2.629584308328   119.76360049     0.00000000
 C      6   3   2     2.767209920965   150.34540145     0.50231459
 C      7   6   3     2.641237941698   150.21491908     0.07054671
 C      8   7   6     2.872373975354   120.29367203   179.78403828
 N      9   8   7     2.382878189312   179.99929583   207.55519285
 C      8   7   6     2.872377025033   119.70585397   359.87224291
 N     11   8   7     2.382888325384   179.99963295   250.65212097
 C      6   3   2     2.770045118808   149.56701289   180.51501797
 C     13   6   3     2.653540131014   150.38998627     0.12186208
 C     14  13   6     2.676908652067   120.61177516   179.89155110
 N     15  14  13     2.189414149561   179.01805506   359.62921739
 C     14  13   6     2.872390759363   119.76726142   359.97492576
 N     17  14  13     2.382882321271   179.99973408   123.17704365

---------------------
BASIS SET INFORMATION
---------------------
There are 2 groups of distinct atoms

 Group   1 Type N   : 11s6p2d1f contracted to 5s3p2d1f pattern {62111/411/11/1}
 Group   2 Type C   : 11s6p2d1f contracted to 5s3p2d1f pattern {62111/411/11/1}

Atom   0N    basis set group =>   1
Atom   1C    basis set group =>   2
Atom   2C    basis set group =>   2
Atom   3C    basis set group =>   2
Atom   4N    basis set group =>   1
Atom   5C    basis set group =>   2
Atom   6C    basis set group =>   2
Atom   7C    basis set group =>   2
Atom   8C    basis set group =>   2
Atom   9N    basis set group =>   1
Atom  10C    basis set group =>   2
Atom  11N    basis set group =>   1
Atom  12C    basis set group =>   2
Atom  13C    basis set group =>   2
Atom  14C    basis set group =>   2
Atom  15N    basis set group =>   1
Atom  16C    basis set group =>   2
Atom  17N    basis set group =>   1
---------------------------------
AUXILIARY/J BASIS SET INFORMATION
---------------------------------
There are 2 groups of distinct atoms

 Group   1 Type N   : 12s5p4d2f1g contracted to 6s4p3d1f1g pattern {711111/2111/211/2/1}
 Group   2 Type C   : 12s5p4d2f1g contracted to 6s4p3d1f1g pattern {711111/2111/211/2/1}

Atom   0N    basis set group =>   1
Atom   1C    basis set group =>   2
Atom   2C    basis set group =>   2
Atom   3C    basis set group =>   2
Atom   4N    basis set group =>   1
Atom   5C    basis set group =>   2
Atom   6C    basis set group =>   2
Atom   7C    basis set group =>   2
Atom   8C    basis set group =>   2
Atom   9N    basis set group =>   1
Atom  10C    basis set group =>   2
Atom  11N    basis set group =>   1
Atom  12C    basis set group =>   2
Atom  13C    basis set group =>   2
Atom  14C    basis set group =>   2
Atom  15N    basis set group =>   1
Atom  16C    basis set group =>   2
Atom  17N    basis set group =>   1
--------------------------------------------------------------------------
[[62960,1],3]: A high-performance Open MPI point-to-point messaging module
was unable to find any relevant network interfaces:

Module: OpenFabrics (openib)
  Host: compute-0-14

Another transport will be used instead, although this may result in
lower performance.

NOTE: You can disable this warning by setting the MCA parameter
btl_base_warn_component_unused to 0.
--------------------------------------------------------------------------


           ************************************************************
           *        Program running with 4 parallel MPI-processes     *
           *              working on a common directory               *
           ************************************************************
------------------------------------------------------------------------------
                           ORCA GTO INTEGRAL CALCULATION
------------------------------------------------------------------------------

                         BASIS SET STATISTICS AND STARTUP INFO

 # of primitive gaussian shells          ...  360
 # of primitive gaussian functions       ...  828
 # of contracted shells                  ...  198
 # of contracted basis functions         ...  558
 Highest angular momentum                ...    3
 Maximum contraction depth               ...    6
 Integral package used                   ... LIBINT
 Integral threshhold            Thresh   ...  2.500e-11
 Primitive cut-off              TCut     ...  2.500e-12


------------------------------ INTEGRAL EVALUATION ----------------------------


 * One electron integrals 
 Pre-screening matrix                    ... done
 Shell pair data                         ... done (   0.006 sec)

[compute-0-14.local:64152] 3 more processes have sent help message help-mpi-btl-base.txt / btl:no-nics
[compute-0-14.local:64152] Set MCA parameter "orte_base_help_aggregate" to 0 to see all help / error messages
--------------------------------------------------------------------------
[[62916,1],1]: A high-performance Open MPI point-to-point messaging module
was unable to find any relevant network interfaces:

Module: OpenFabrics (openib)
  Host: compute-0-14

Another transport will be used instead, although this may result in
lower performance.

NOTE: You can disable this warning by setting the MCA parameter
btl_base_warn_component_unused to 0.
--------------------------------------------------------------------------


           ************************************************************
           *        Program running with 4 parallel MPI-processes     *
           *              working on a common directory               *
           ************************************************************
-------------------------------------------------------------------------------
                                 ORCA SCF
-------------------------------------------------------------------------------

------------
SCF SETTINGS
------------
Hamiltonian:
 Density Functional     Method          .... DFT(GTOs)
 Exchange Functional    Exchange        .... WB97X-D3
 Correlation Functional Correlation     .... WB97X-D3
 Gradients option       PostSCFGGA      .... off
 Hybrid DFT is turned on
   Fraction HF Exchange ScalHFX         ....  0.195728
   Scaling of DF-GGA-X  ScalDFX         ....  0.000000
   Scaling of DF-GGA-C  ScalDFC         ....  1.000000
   Scaling of DF-LDA-C  ScalLDAC        ....  1.000000
   Perturbative correction              ....  0.000000
   Density functional embedding theory  .... OFF
 Long-range corrected/Screened/Range-Separated Hybrid DFT is turned on
   Amount of maximum screened exact exchange              ....  0.804272
   Range separation parameter mu (erf(mu*r12)/r12)        ....  0.250000


General Settings:
 Integral files         IntName         .... CN6-CP
 Hartree-Fock type      HFTyp           .... RHF
 Total Charge           Charge          ....    0
 Multiplicity           Mult            ....    1
 Number of Electrons    NEL             ....  114
 Basis Dimension        Dim             ....  558
 Nuclear Repulsion      ENuc            ....    930.9585421627 Eh

Convergence Acceleration:
 DIIS                   CNVDIIS         .... on
   Start iteration      DIISMaxIt       ....    12
   Startup error        DIISStart       ....  0.200000
   # of expansion vecs  DIISMaxEq       ....     5
   Bias factor          DIISBfac        ....   1.050
   Max. coefficient     DIISMaxC        ....  10.000
 Newton-Raphson         CNVNR           .... off
 SOSCF                  CNVSOSCF        .... on
   Start iteration      SOSCFMaxIt      ....   150
   Startup grad/error   SOSCFStart      ....  0.003300
 Level Shifting         CNVShift        .... on
   Level shift para.    LevelShift      ....    0.2500
   Turn off err/grad.   ShiftErr        ....    0.0010
 Zerner damping         CNVZerner       .... off
 Static damping         CNVDamp         .... on
   Fraction old density DampFac         ....    0.7000
   Max. Damping (<1)    DampMax         ....    0.9800
   Min. Damping (>=0)   DampMin         ....    0.0000
   Turn off err/grad.   DampErr         ....    0.1000
 Fernandez-Rico         CNVRico         .... off

SCF Procedure:
 Maximum # iterations   MaxIter         ....   125
 SCF integral mode      SCFMode         .... Direct
   Integral package                     .... LIBINT
 Reset frequency        DirectResetFreq ....    20
 Integral Threshold     Thresh          ....  2.500e-11 Eh
 Primitive CutOff       TCut            ....  2.500e-12 Eh

Convergence Tolerance:
 Convergence Check Mode ConvCheckMode   .... Total+1el-Energy
 Convergence forced     ConvForced      .... 0
 Energy Change          TolE            ....  1.000e-08 Eh
 1-El. energy change                    ....  1.000e-05 Eh
 Orbital Gradient       TolG            ....  1.000e-05
 Orbital Rotation angle TolX            ....  1.000e-05
 DIIS Error             TolErr          ....  5.000e-07


Diagonalization of the overlap matrix:
Smallest eigenvalue                        ... 1.399e-05
Time for diagonalization                   ...    0.189 sec
Threshold for overlap eigenvalues          ... 1.000e-08
Number of eigenvalues below threshold      ... 0
Time for construction of square roots      ...    0.053 sec
Total time needed                          ...    0.243 sec

-------------------
DFT GRID GENERATION
-------------------

General Integration Accuracy     IntAcc      ...  4.340
Radial Grid Type                 RadialGrid  ... Gauss-Chebyshev
Angular Grid (max. acc.)         AngularGrid ... Lebedev-110
Angular grid pruning method      GridPruning ... 3 (G Style)
Weight generation scheme         WeightScheme... Becke
Basis function cutoff            BFCut       ...    1.0000e-11
Integration weight cutoff        WCut        ...    1.0000e-14
Grids for H and He will be reduced by one unit

# of grid points (after initial pruning)     ...  30084 (   0.0 sec)
# of grid points (after weights+screening)   ...  28098 (   0.0 sec)
nearest neighbour list constructed           ...    0.0 sec
Grid point re-assignment to atoms done       ...    0.0 sec
Grid point division into batches done        ...    0.0 sec
Reduced shell lists constructed in    0.2 sec

Total number of grid points                  ...    28098
Total number of batches                      ...      448
Average number of points per batch           ...       62
Average number of grid points per atom       ...     1561
Average number of shells per batch           ...    92.70 (46.82%)
Average number of basis functions per batch  ...   257.67 (46.18%)
Average number of large shells per batch     ...    63.55 (68.55%)
Average number of large basis fcns per batch ...   174.86 (67.86%)
Maximum spatial batch extension              ...  13.22, 21.92, 17.77 au
Average spatial batch extension              ...   0.88,  1.35,  1.04 au

Time for grid setup =    0.248 sec

------------------------------
INITIAL GUESS: MODEL POTENTIAL
------------------------------
Loading Hartree-Fock densities                     ... done
Calculating cut-offs                               ... done
Setting up the integral package                    ... done
Initializing the effective Hamiltonian             ... done
Starting the Coulomb interaction                   ... done (   0.3 sec)
Reading the grid                                   ... done
Mapping shells                                     ... done
Starting the XC term evaluation                    ... done (   0.4 sec)
  promolecular density results
     # of electrons  =    114.000254730
     EX              =    -99.844577885
     EC              =     -3.699136499
     EX+EC           =   -103.543714384
Transforming the Hamiltonian                       ... done (   0.1 sec)
Diagonalizing the Hamiltonian                      ... done (   0.1 sec)
Back transforming the eigenvectors                 ... done (   0.0 sec)
Now organizing SCF variables                       ... done
                      ------------------
                      INITIAL GUESS DONE (   1.2 sec)
                      ------------------

--------------------
CPCM SOLVATION MODEL
--------------------
CPCM parameters:
  Epsilon                                         ...       3.0000
  Refrac                                          ...       1.3300
  Rsolv                                           ...       1.3000
  Surface type                                    ...    GEPOL SES
  Epsilon function type                           ...         CPCM
Radii:
 Radius for N  used is    3.4582 Bohr (=   1.8300 Ang.)
 Radius for C  used is    3.7795 Bohr (=   2.0000 Ang.)
Calculating surface                               ...        done! (  0.1s)
GEPOL surface points                              ...          876
GEPOL Volume                                      ...    1962.9302
GEPOL Surface-area                                ...    1009.8655
Calculating surface distance matrix               ...        done! (  0.0s)
Performing Cholesky decomposition & store         ...        done! (  0.0s)
Overall time for CPCM initialization              ...                 0.1s
--------------
SCF ITERATIONS
--------------
ITER       Energy         Delta-E        Max-DP      RMS-DP      [F,P]     Damp
               ***  Starting incremental Fock matrix formation  ***
[compute-0-14.local:64172] 3 more processes have sent help message help-mpi-btl-base.txt / btl:no-nics
[compute-0-14.local:64172] Set MCA parameter "orte_base_help_aggregate" to 0 to see all help / error messages
  0   -784.9095944474   0.000000000000 0.05601362  0.00083177  0.2782994 0.7000
  1   -785.1625605334  -0.252966085994 0.03281834  0.00056975  0.1140953 0.7000
                               ***Turning on DIIS***
  2   -785.2422432916  -0.079682758175 0.05192545  0.00092342  0.0350420 0.0000
  3   -785.3938671261  -0.151623834503 0.02313333  0.00049093  0.0622270 0.0000
  4   -785.4220609083  -0.028193782167 0.00950201  0.00018919  0.0166741 0.0000
                      *** Initiating the SOSCF procedure ***
                           *** Shutting down DIIS ***
                      *** Re-Reading the Fockian *** 
                      *** Removing any level shift *** 
ITER      Energy       Delta-E        Grad      Rot      Max-DP    RMS-DP
  5   -785.42396976  -0.0019088538  0.002780  0.002780  0.003928  0.000085
               *** Restarting incremental Fock matrix formation ***
  6   -785.42425869  -0.0002889279  0.002406  0.007301  0.004048  0.000068
  7   -785.42440216  -0.0001434656  0.001221  0.008272  0.003626  0.000071
  8   -785.42446689  -0.0000647310  0.000730  0.002377  0.001672  0.000032
  9   -785.42448039  -0.0000135044  0.000456  0.000832  0.000751  0.000014
 10   -785.42448184  -0.0000014505  0.000163  0.000506  0.000390  0.000007
 11   -785.42448408  -0.0000022373  0.000048  0.000126  0.000070  0.000001
 12   -785.42448410  -0.0000000238  0.000050  0.000066  0.000042  0.000001
 13   -785.42448418  -0.0000000730  0.000010  0.000051  0.000020  0.000000
 14   -785.42448419  -0.0000000120  0.000008  0.000047  0.000014  0.000000
 15   -785.42448420  -0.0000000118  0.000004  0.000004  0.000006  0.000000
                  ***Gradient check signals convergence***
              ***Rediagonalizing the Fockian in SOSCF/NRSCF***

               *****************************************************
               *                     SUCCESS                       *
               *           SCF CONVERGED AFTER  16 CYCLES          *
               *****************************************************

Setting up the final grid:

General Integration Accuracy     IntAcc      ...  4.670
Radial Grid Type                 RadialGrid  ... Gauss-Chebyshev
Angular Grid (max. acc.)         AngularGrid ... Lebedev-302
Angular grid pruning method      GridPruning ... 3 (G Style)
Weight generation scheme         WeightScheme... Becke
Basis function cutoff            BFCut       ...    1.0000e-11
Integration weight cutoff        WCut        ...    1.0000e-14
Grids for H and He will be reduced by one unit

# of grid points (after initial pruning)     ... 111816 (   0.0 sec)
# of grid points (after weights+screening)   ... 103034 (   0.2 sec)
nearest neighbour list constructed           ...    0.0 sec
Grid point re-assignment to atoms done       ...    0.0 sec
Grid point division into batches done        ...    0.6 sec
Reduced shell lists constructed in    1.1 sec

Total number of grid points                  ...   103034
Total number of batches                      ...     1619
Average number of points per batch           ...       63
Average number of grid points per atom       ...     5724
Average number of shells per batch           ...    82.91 (41.87%)
Average number of basis functions per batch  ...   228.40 (40.93%)
Average number of large shells per batch     ...    56.44 (68.08%)
Average number of large basis fcns per batch ...   154.16 (67.49%)
Maximum spatial batch extension              ...  18.92, 26.72, 16.45 au
Average spatial batch extension              ...   0.65,  0.80,  0.69 au

Final grid set up in    1.3 sec
Final integration                            ... done (   1.6 sec)
Change in XC energy                          ...     0.002001651
Integrated number of electrons               ...   113.999995933
Previous integrated no of electrons          ...   114.001117826

----------------
TOTAL SCF ENERGY
----------------

Total Energy       :         -785.42248254 Eh          -21372.43230 eV

Components:
Nuclear Repulsion  :          930.95854216 Eh           25332.66982 eV
Electronic Energy  :        -1716.38102470 Eh          -46705.10212 eV
One Electron Energy:        -2904.11680431 Eh          -79025.03580 eV
Two Electron Energy:         1187.73577961 Eh           32319.93368 eV
CPCM Dielectric    :           -0.02220903 Eh              -0.60434 eV

Virial components:
Potential Energy   :        -1564.62295346 Eh          -42575.55506 eV
Kinetic Energy     :          779.20047092 Eh           21203.12276 eV
Virial Ratio       :            2.00798512


DFT components:
N(Alpha)           :       56.999997966672 electrons
N(Beta)            :       56.999997966672 electrons
N(Total)           :      113.999995933343 electrons
E(XC)              :      -73.275103691301 Eh       
DFET-embed. en.    :        0.000000000000 Eh       
CPCM Solvation Model Properties:
Surface-charge          :           -0.02770932
Charge-correction       :            0.00039452 Eh               0.01074 eV
Free-energy (cav+disp)  :            0.00515335 Eh               0.14023 eV
Corrected G(solv)       :         -785.41693466 Eh          -21372.28134 eV

---------------
SCF CONVERGENCE
---------------

  Last Energy change         ...    1.0817e-08  Tolerance :   1.0000e-08
  Last MAX-Density change    ...    6.8334e-06  Tolerance :   1.0000e-07
  Last RMS-Density change    ...    1.1014e-07  Tolerance :   5.0000e-09
  Last Orbital Gradient      ...    1.3728e-06  Tolerance :   1.0000e-05
  Last Orbital Rotation      ...    3.6208e-06  Tolerance :   1.0000e-05

             **** THE GBW FILE WAS UPDATED (CN6-CP.gbw) ****
             **** DENSITY FILE WAS UPDATED (CN6-CP.scfp) ****
             **** ENERGY FILE WAS UPDATED (CN6-CP.en.tmp) ****
             **** THE GBW FILE WAS UPDATED (CN6-CP.gbw) ****
             **** DENSITY FILE WAS UPDATED (CN6-CP.scfp) ****
----------------
ORBITAL ENERGIES
----------------

  NO   OCC          E(Eh)            E(eV) 
   0   2.0000     -14.506535      -394.7429 
   1   2.0000     -14.506053      -394.7298 
   2   2.0000     -14.505481      -394.7142 
   3   2.0000     -14.505189      -394.7063 
   4   2.0000     -14.480842      -394.0437 
   5   2.0000     -14.480762      -394.0416 
   6   2.0000     -10.462584      -284.7014 
   7   2.0000     -10.452080      -284.4156 
   8   2.0000     -10.450482      -284.3721 
   9   2.0000     -10.437629      -284.0223 
  10   2.0000     -10.436819      -284.0003 
  11   2.0000     -10.435605      -283.9672 
  12   2.0000     -10.410497      -283.2840 
  13   2.0000     -10.409821      -283.2656 
  14   2.0000     -10.409034      -283.2442 
  15   2.0000     -10.408501      -283.2297 
  16   2.0000     -10.376586      -282.3613 
  17   2.0000     -10.376431      -282.3570 
  18   2.0000      -1.114103       -30.3163 
  19   2.0000      -1.081924       -29.4407 
  20   2.0000      -1.078069       -29.3357 
  21   2.0000      -1.048141       -28.5214 
  22   2.0000      -1.041360       -28.3368 
  23   2.0000      -1.038413       -28.2567 
  24   2.0000      -1.034114       -28.1397 
  25   2.0000      -0.986036       -26.8314 
  26   2.0000      -0.979696       -26.6589 
  27   2.0000      -0.951317       -25.8867 
  28   2.0000      -0.789086       -21.4721 
  29   2.0000      -0.783631       -21.3237 
  30   2.0000      -0.748160       -20.3585 
  31   2.0000      -0.747536       -20.3415 
  32   2.0000      -0.738839       -20.1048 
  33   2.0000      -0.734331       -19.9822 
  34   2.0000      -0.603723       -16.4281 
  35   2.0000      -0.560104       -15.2412 
  36   2.0000      -0.558665       -15.2021 
  37   2.0000      -0.550465       -14.9789 
  38   2.0000      -0.539708       -14.6862 
  39   2.0000      -0.533634       -14.5209 
  40   2.0000      -0.531307       -14.4576 
  41   2.0000      -0.528956       -14.3936 
  42   2.0000      -0.522833       -14.2270 
  43   2.0000      -0.516934       -14.0665 
  44   2.0000      -0.516122       -14.0444 
  45   2.0000      -0.494825       -13.4649 
  46   2.0000      -0.493627       -13.4323 
  47   2.0000      -0.489015       -13.3068 
  48   2.0000      -0.477979       -13.0065 
  49   2.0000      -0.476312       -12.9611 
  50   2.0000      -0.474161       -12.9026 
  51   2.0000      -0.468708       -12.7542 
  52   2.0000      -0.464522       -12.6403 
  53   2.0000      -0.464345       -12.6355 
  54   2.0000      -0.458439       -12.4748 
  55   2.0000      -0.390989       -10.6393 
  56   2.0000      -0.390161       -10.6168 
  57   0.0000      -0.163715        -4.4549 
  58   0.0000      -0.005679        -0.1545 
  59   0.0000      -0.003917        -0.1066 
  60   0.0000       0.001013         0.0276 
  61   0.0000       0.012596         0.3427 
  62   0.0000       0.014005         0.3811 
  63   0.0000       0.034400         0.9361 
  64   0.0000       0.038638         1.0514 
  65   0.0000       0.054180         1.4743 
  66   0.0000       0.054513         1.4834 
  67   0.0000       0.056168         1.5284 
  68   0.0000       0.065255         1.7757 
  69   0.0000       0.069251         1.8844 
  70   0.0000       0.098288         2.6746 
  71   0.0000       0.102672         2.7939 
  72   0.0000       0.141583         3.8527 
  73   0.0000       0.149861         4.0779 
  74   0.0000       0.157450         4.2844 
  75   0.0000       0.161183         4.3860 
  76   0.0000       0.172491         4.6937 
  77   0.0000       0.177790         4.8379 
  78   0.0000       0.188124         5.1191 
  79   0.0000       0.194631         5.2962 
  80   0.0000       0.203436         5.5358 
  81   0.0000       0.205099         5.5810 
  82   0.0000       0.223321         6.0769 
  83   0.0000       0.223917         6.0931 
  84   0.0000       0.225617         6.1394 
  85   0.0000       0.228212         6.2100 
  86   0.0000       0.265760         7.2317 
  87   0.0000       0.266924         7.2634 
  88   0.0000       0.268355         7.3023 
  89   0.0000       0.273983         7.4555 
  90   0.0000       0.275942         7.5088 
  91   0.0000       0.290611         7.9079 
  92   0.0000       0.299200         8.1417 
  93   0.0000       0.307272         8.3613 
  94   0.0000       0.310126         8.4390 
  95   0.0000       0.313739         8.5373 
  96   0.0000       0.314010         8.5446 
  97   0.0000       0.315756         8.5922 
  98   0.0000       0.323160         8.7936 
  99   0.0000       0.332447         9.0463 
 100   0.0000       0.348106         9.4724 
 101   0.0000       0.369083        10.0433 
 102   0.0000       0.371129        10.0989 
 103   0.0000       0.373157        10.1541 
 104   0.0000       0.394160        10.7256 
 105   0.0000       0.396980        10.8024 
 106   0.0000       0.398539        10.8448 
 107   0.0000       0.401463        10.9244 
 108   0.0000       0.409911        11.1543 
 109   0.0000       0.413847        11.2613 
 110   0.0000       0.419281        11.4092 
 111   0.0000       0.421340        11.4653 
 112   0.0000       0.462564        12.5870 
 113   0.0000       0.465506        12.6671 
 114   0.0000       0.466296        12.6886 
 115   0.0000       0.468233        12.7413 
 116   0.0000       0.470820        12.8117 
 117   0.0000       0.472603        12.8602 
 118   0.0000       0.474609        12.9148 
 119   0.0000       0.482309        13.1243 
 120   0.0000       0.485503        13.2112 
 121   0.0000       0.511449        13.9172 
 122   0.0000       0.520088        14.1523 
 123   0.0000       0.522487        14.2176 
 124   0.0000       0.525145        14.2899 
 125   0.0000       0.526526        14.3275 
 126   0.0000       0.562179        15.2977 
 127   0.0000       0.567043        15.4300 
 128   0.0000       0.576221        15.6798 
 129   0.0000       0.578354        15.7378 
 130   0.0000       0.586349        15.9554 
 131   0.0000       0.590767        16.0756 
 132   0.0000       0.595133        16.1944 
 133   0.0000       0.597977        16.2718 
 134   0.0000       0.600727        16.3466 
 135   0.0000       0.605396        16.4737 
 136   0.0000       0.608271        16.5519 
 137   0.0000       0.617113        16.7925 
 138   0.0000       0.619593        16.8600 
 139   0.0000       0.628845        17.1117 
 140   0.0000       0.638101        17.3636 
 141   0.0000       0.640813        17.4374 
 142   0.0000       0.645707        17.5706 
 143   0.0000       0.650217        17.6933 
 144   0.0000       0.677035        18.4231 
 145   0.0000       0.677128        18.4256 
 146   0.0000       0.690531        18.7903 
 147   0.0000       0.696532        18.9536 
 148   0.0000       0.702607        19.1189 
 149   0.0000       0.704572        19.1724 
 150   0.0000       0.711620        19.3642 
 151   0.0000       0.719191        19.5702 
 152   0.0000       0.743733        20.2380 
 153   0.0000       0.745367        20.2825 
 154   0.0000       0.746919        20.3247 
 155   0.0000       0.749387        20.3919 
 156   0.0000       0.755380        20.5549 
 157   0.0000       0.770423        20.9643 
 158   0.0000       0.772656        21.0250 
 159   0.0000       0.775420        21.1002 
 160   0.0000       0.779992        21.2247 
 161   0.0000       0.784030        21.3345 
 162   0.0000       0.789578        21.4855 
 163   0.0000       0.795266        21.6403 
 164   0.0000       0.799693        21.7608 
 165   0.0000       0.802326        21.8324 
 166   0.0000       0.821128        22.3440 
 167   0.0000       0.827823        22.5262 
 168   0.0000       0.828403        22.5420 
 169   0.0000       0.842842        22.9349 
 170   0.0000       0.845362        23.0035 
 171   0.0000       0.855825        23.2882 
 172   0.0000       0.877484        23.8776 
 173   0.0000       0.880224        23.9521 
 174   0.0000       0.890847        24.2412 
 175   0.0000       0.908736        24.7280 
 176   0.0000       0.914761        24.8919 
 177   0.0000       0.956414        26.0254 
 178   0.0000       0.974086        26.5062 
 179   0.0000       0.981843        26.7173 
 180   0.0000       1.010620        27.5004 
 181   0.0000       1.011850        27.5338 
 182   0.0000       1.021132        27.7864 
 183   0.0000       1.028870        27.9970 
 184   0.0000       1.031889        28.0791 
 185   0.0000       1.079270        29.3684 
 186   0.0000       1.083798        29.4916 
 187   0.0000       1.116534        30.3824 
 188   0.0000       1.118631        30.4395 
 189   0.0000       1.130794        30.7705 
 190   0.0000       1.134950        30.8836 
 191   0.0000       1.150327        31.3020 
 192   0.0000       1.155597        31.4454 
 193   0.0000       1.159121        31.5413 
 194   0.0000       1.175268        31.9807 
 195   0.0000       1.193841        32.4861 
 196   0.0000       1.193958        32.4892 
 197   0.0000       1.214284        33.0424 
 198   0.0000       1.236148        33.6373 
 199   0.0000       1.244300        33.8591 
 200   0.0000       1.249826        34.0095 
 201   0.0000       1.262230        34.3470 
 202   0.0000       1.273414        34.6514 
 203   0.0000       1.284082        34.9416 
 204   0.0000       1.292634        35.1744 
 205   0.0000       1.293672        35.2026 
 206   0.0000       1.299389        35.3582 
 207   0.0000       1.307756        35.5859 
 208   0.0000       1.313935        35.7540 
 209   0.0000       1.314792        35.7773 
 210   0.0000       1.317733        35.8573 
 211   0.0000       1.334693        36.3188 
 212   0.0000       1.350924        36.7605 
 213   0.0000       1.362901        37.0864 
 214   0.0000       1.370626        37.2966 
 215   0.0000       1.374324        37.3973 
 216   0.0000       1.376146        37.4468 
 217   0.0000       1.379834        37.5472 
 218   0.0000       1.386609        37.7316 
 219   0.0000       1.390424        37.8354 
 220   0.0000       1.393341        37.9147 
 221   0.0000       1.404215        38.2106 
 222   0.0000       1.409667        38.3590 
 223   0.0000       1.410025        38.3687 
 224   0.0000       1.416272        38.5387 
 225   0.0000       1.421696        38.6863 
 226   0.0000       1.427327        38.8395 
 227   0.0000       1.435668        39.0665 
 228   0.0000       1.448380        39.4124 
 229   0.0000       1.464431        39.8492 
 230   0.0000       1.472018        40.0556 
 231   0.0000       1.476257        40.1710 
 232   0.0000       1.502429        40.8832 
 233   0.0000       1.545286        42.0494 
 234   0.0000       1.546354        42.0784 
 235   0.0000       1.547291        42.1039 
 236   0.0000       1.552083        42.2343 
 237   0.0000       1.562843        42.5271 
 238   0.0000       1.564659        42.5765 
 239   0.0000       1.570797        42.7436 
 240   0.0000       1.599300        43.5192 
 241   0.0000       1.601410        43.5766 
 242   0.0000       1.604399        43.6579 
 243   0.0000       1.626200        44.2512 
 244   0.0000       1.652307        44.9616 
 245   0.0000       1.657400        45.1001 
 246   0.0000       1.662769        45.2462 
 247   0.0000       1.674142        45.5557 
 248   0.0000       1.701497        46.3001 
 249   0.0000       1.709854        46.5275 
 250   0.0000       1.714781        46.6616 
 251   0.0000       1.751114        47.6502 
 252   0.0000       1.756534        47.7977 
 253   0.0000       1.761130        47.9228 
 254   0.0000       1.781452        48.4758 
 255   0.0000       1.784710        48.5644 
 256   0.0000       1.807011        49.1713 
 257   0.0000       1.823654        49.6241 
 258   0.0000       1.846625        50.2492 
 259   0.0000       1.863552        50.7098 
 260   0.0000       1.867311        50.8121 
 261   0.0000       1.888383        51.3855 
 262   0.0000       1.897176        51.6248 
 263   0.0000       1.900678        51.7201 
 264   0.0000       1.905328        51.8466 
 265   0.0000       1.917518        52.1783 
 266   0.0000       1.941058        52.8189 
 267   0.0000       1.944548        52.9138 
 268   0.0000       1.945730        52.9460 
 269   0.0000       1.946698        52.9723 
 270   0.0000       1.970356        53.6161 
 271   0.0000       2.005929        54.5841 
 272   0.0000       2.011158        54.7264 
 273   0.0000       2.037273        55.4370 
 274   0.0000       2.043547        55.6077 
 275   0.0000       2.051811        55.8326 
 276   0.0000       2.082013        56.6545 
 277   0.0000       2.094515        56.9946 
 278   0.0000       2.113581        57.5134 
 279   0.0000       2.126776        57.8725 
 280   0.0000       2.127234        57.8850 
 281   0.0000       2.153076        58.5882 
 282   0.0000       2.158974        58.7487 
 283   0.0000       2.190177        59.5977 
 284   0.0000       2.195553        59.7440 
 285   0.0000       2.203341        59.9559 
 286   0.0000       2.282996        62.1235 
 287   0.0000       2.286032        62.2061 
 288   0.0000       2.307113        62.7797 
 289   0.0000       2.322852        63.2080 
 290   0.0000       2.336810        63.5878 
 291   0.0000       2.346539        63.8526 
 292   0.0000       2.358764        64.1852 
 293   0.0000       2.360561        64.2341 
 294   0.0000       2.362975        64.2998 
 295   0.0000       2.380519        64.7772 
 296   0.0000       2.387407        64.9646 
 297   0.0000       2.396686        65.2171 
 298   0.0000       2.405637        65.4607 
 299   0.0000       2.418378        65.8074 
 300   0.0000       2.427045        66.0433 
 301   0.0000       2.439243        66.3752 
 302   0.0000       2.440088        66.3982 
 303   0.0000       2.478428        67.4415 
 304   0.0000       2.486639        67.6649 
 305   0.0000       2.491246        67.7903 
 306   0.0000       2.497677        67.9653 
 307   0.0000       2.515071        68.4386 
 308   0.0000       2.545485        69.2662 
 309   0.0000       2.546284        69.2879 
 310   0.0000       2.548802        69.3564 
 311   0.0000       2.604762        70.8792 
 312   0.0000       2.644190        71.9521 
 313   0.0000       2.655481        72.2593 
 314   0.0000       2.661954        72.4354 
 315   0.0000       2.672164        72.7133 
 316   0.0000       2.691744        73.2461 
 317   0.0000       2.694610        73.3241 
 318   0.0000       2.695393        73.3454 
 319   0.0000       2.696044        73.3631 
 320   0.0000       2.708163        73.6929 
 321   0.0000       2.711569        73.7855 
 322   0.0000       2.713901        73.8490 
 323   0.0000       2.718014        73.9609 
 324   0.0000       2.722846        74.0924 
 325   0.0000       2.730793        74.3087 
 326   0.0000       2.737034        74.4785 
 327   0.0000       2.738954        74.5307 
 328   0.0000       2.743512        74.6548 
 329   0.0000       2.744599        74.6843 
 330   0.0000       2.747986        74.7765 
 331   0.0000       2.765312        75.2480 
 332   0.0000       2.770177        75.3804 
 333   0.0000       2.772470        75.4428 
 334   0.0000       2.776819        75.5611 
 335   0.0000       2.782178        75.7069 
 336   0.0000       2.811001        76.4912 
 337   0.0000       2.828989        76.9807 
 338   0.0000       2.884162        78.4820 
 339   0.0000       2.897965        78.8576 
 340   0.0000       2.908676        79.1491 
 341   0.0000       2.919787        79.4514 
 342   0.0000       2.932792        79.8053 
 343   0.0000       2.937928        79.9451 
 344   0.0000       2.940679        80.0199 
 345   0.0000       2.946804        80.1866 
 346   0.0000       2.954006        80.3826 
 347   0.0000       2.976213        80.9869 
 348   0.0000       2.981647        81.1347 
 349   0.0000       2.988845        81.3306 
 350   0.0000       2.997929        81.5778 
 351   0.0000       3.000674        81.6525 
 352   0.0000       3.020966        82.2047 
 353   0.0000       3.028207        82.4017 
 354   0.0000       3.030999        82.4777 
 355   0.0000       3.033327        82.5410 
 356   0.0000       3.046959        82.9120 
 357   0.0000       3.055724        83.1505 
 358   0.0000       3.070072        83.5409 
 359   0.0000       3.070664        83.5570 
 360   0.0000       3.080658        83.8290 
 361   0.0000       3.082562        83.8808 
 362   0.0000       3.089515        84.0700 
 363   0.0000       3.098640        84.3183 
 364   0.0000       3.100424        84.3668 
 365   0.0000       3.107189        84.5509 
 366   0.0000       3.118514        84.8591 
 367   0.0000       3.119046        84.8736 
 368   0.0000       3.126560        85.0780 
 369   0.0000       3.128771        85.1382 
 370   0.0000       3.141612        85.4876 
 371   0.0000       3.157195        85.9116 
 372   0.0000       3.193411        86.8971 
 373   0.0000       3.195521        86.9545 
 374   0.0000       3.196326        86.9764 
 375   0.0000       3.205641        87.2299 
 376   0.0000       3.208657        87.3120 
 377   0.0000       3.217920        87.5641 
 378   0.0000       3.223499        87.7159 
 379   0.0000       3.227982        87.8379 
 380   0.0000       3.234275        88.0091 
 381   0.0000       3.238464        88.1231 
 382   0.0000       3.249501        88.4234 
 383   0.0000       3.261194        88.7416 
 384   0.0000       3.269487        88.9673 
 385   0.0000       3.272966        89.0619 
 386   0.0000       3.277789        89.1932 
 387   0.0000       3.294956        89.6603 
 388   0.0000       3.300920        89.8226 
 389   0.0000       3.308986        90.0421 
 390   0.0000       3.325376        90.4881 
 391   0.0000       3.329729        90.6065 
 392   0.0000       3.344691        91.0137 
 393   0.0000       3.349958        91.1570 
 394   0.0000       3.365731        91.5862 
 395   0.0000       3.372354        91.7664 
 396   0.0000       3.392255        92.3079 
 397   0.0000       3.401395        92.5567 
 398   0.0000       3.412544        92.8600 
 399   0.0000       3.420628        93.0800 
 400   0.0000       3.437730        93.5454 
 401   0.0000       3.446764        93.7912 
 402   0.0000       3.473016        94.5056 
[...]
 15 N s       :     3.695155  s :     3.695155
      pz      :     1.168619  p :     3.275419
      px      :     1.076034
      py      :     1.030767
      dz2     :     0.012232  d :     0.039588
      dxz     :     0.007444
      dyz     :     0.011562
      dx2y2   :     0.003917
      dxy     :     0.004433
      f0      :     0.000640  f :     0.001825
      f+1     :     0.000047
      f-1     :     0.000357
      f+2     :     0.000258
      f-2     :     0.000410
      f+3     :     0.000053
      f-3     :     0.000059
 16 C s       :     3.248214  s :     3.248214
      pz      :     0.966315  p :     2.847801
      px      :     0.959028
      py      :     0.922458
      dz2     :     0.022868  d :     0.081602
      dxz     :     0.013295
      dyz     :     0.027429
      dx2y2   :     0.006387
      dxy     :     0.011623
      f0      :     0.005380  f :     0.017841
      f+1     :     0.002322
      f-1     :     0.003258
      f+2     :     0.002512
      f-2     :     0.003393
      f+3     :     0.000458
      f-3     :     0.000518
 17 N s       :     3.695386  s :     3.695386
      pz      :     1.171328  p :     3.275376
      px      :     1.073072
      py      :     1.030976
      dz2     :     0.012107  d :     0.039600
      dxz     :     0.007744
      dyz     :     0.011724
      dx2y2   :     0.003801
      dxy     :     0.004225
      f0      :     0.000641  f :     0.001825
      f+1     :     0.000050
      f-1     :     0.000372
      f+2     :     0.000264
      f-2     :     0.000394
      f+3     :     0.000050
      f-3     :     0.000054


                     *******************************
                     * LOEWDIN POPULATION ANALYSIS *
                     *******************************

----------------------
LOEWDIN ATOMIC CHARGES
----------------------
   0 N :    0.110518
   1 C :   -0.109545
   2 C :   -0.074596
   3 C :   -0.109458
   4 N :    0.110511
   5 C :    0.072244
   6 C :    0.072263
   7 C :   -0.074564
   8 C :   -0.109406
   9 N :    0.110489
  10 C :   -0.109605
  11 N :    0.110631
  12 C :    0.072516
  13 C :   -0.074437
  14 C :   -0.109383
  15 N :    0.110580
  16 C :   -0.109410
  17 N :    0.110654

-------------------------------
LOEWDIN REDUCED ORBITAL CHARGES
-------------------------------
  0 N s       :     3.300263  s :     3.300263
      pz      :     0.986047  p :     3.461509
      px      :     1.486336
      py      :     0.989125
      dz2     :     0.011505  d :     0.110805
      dxz     :     0.032600
      dyz     :     0.000006
      dx2y2   :     0.034517
      dxy     :     0.032176
      f0      :     0.001842  f :     0.016906
      f+1     :     0.002717
      f-1     :     0.000297
      f+2     :     0.003067
      f-2     :     0.000002
      f+3     :     0.004534
      f-3     :     0.004447
  1 C s       :     2.797123  s :     2.797123
      pz      :     0.840475  p :     2.843745
      px      :     1.148659
      py      :     0.854611
      dz2     :     0.038821  d :     0.406200
      dxz     :     0.120621
      dyz     :     0.000492
      dx2y2   :     0.117892
      dxy     :     0.128374
      f0      :     0.006614  f :     0.062478
      f+1     :     0.010026
      f-1     :     0.001125
      f+2     :     0.011246
      f-2     :     0.000051
      f+3     :     0.016149
      f-3     :     0.017266
  2 C s       :     2.691504  s :     2.691504
      pz      :     0.995466  p :     2.832392
      px      :     0.973950
      py      :     0.862976
      dz2     :     0.140309  d :     0.495493
      dxz     :     0.158736
      dyz     :     0.065742
      dx2y2   :     0.069346
      dxy     :     0.061361
      f0      :     0.013842  f :     0.055208
      f+1     :     0.010373
      f-1     :     0.005316
      f+2     :     0.010019
      f-2     :     0.005920
      f+3     :     0.005071
      f-3     :     0.004666
  3 C s       :     2.797185  s :     2.797185
      pz      :     1.071641  p :     2.843763
      px      :     0.913597
      py      :     0.858524
      dz2     :     0.130400  d :     0.406073
      dxz     :     0.115088
      dyz     :     0.101365
      dx2y2   :     0.030912
      dxy     :     0.028308
      f0      :     0.015581  f :     0.062438
      f+1     :     0.018236
      f-1     :     0.009449
      f+2     :     0.008620
      f-2     :     0.008476
      f+3     :     0.001040
      f-3     :     0.001034
  4 N s       :     3.300467  s :     3.300467
      pz      :     1.364116  p :     3.461301
      px      :     1.102503
      py      :     0.994681
      dz2     :     0.036576  d :     0.110818
      dxz     :     0.033513
      dyz     :     0.024826
      dx2y2   :     0.008051
      dxy     :     0.007853
      f0      :     0.004309  f :     0.016903
      f+1     :     0.005000
      f-1     :     0.002443
      f+2     :     0.002397
      f-2     :     0.002219
      f+3     :     0.000270
      f-3     :     0.000265
  5 C s       :     2.665714  s :     2.665714
      pz      :     0.979526  p :     2.703775
      px      :     0.947527
      py      :     0.776722
      dz2     :     0.144301  d :     0.498238
      dxz     :     0.153441
      dyz     :     0.103162
      dx2y2   :     0.047921
      dxy     :     0.049414
      f0      :     0.012744  f :     0.060030
      f+1     :     0.021415
      f-1     :     0.007269
      f+2     :     0.007008
      f-2     :     0.005410
      f+3     :     0.003105
      f-3     :     0.003079
  6 C s       :     2.665749  s :     2.665749
      pz      :     0.980327  p :     2.703698
      px      :     0.946498
      py      :     0.776873
      dz2     :     0.145054  d :     0.498259
      dxz     :     0.153485
      dyz     :     0.104433
      dx2y2   :     0.047213
      dxy     :     0.048074
      f0      :     0.012901  f :     0.060032
      f+1     :     0.021419
      f-1     :     0.007420
      f+2     :     0.006880
      f-2     :     0.005420
      f+3     :     0.002999
      f-3     :     0.002993
  7 C s       :     2.691533  s :     2.691533
      pz      :     0.996106  p :     2.832371
      px      :     0.973331
      py      :     0.862935
      dz2     :     0.139801  d :     0.495458
      dxz     :     0.159621
      dyz     :     0.065770
      dx2y2   :     0.069072
      dxy     :     0.061195
      f0      :     0.013867  f :     0.055201
      f+1     :     0.010381
      f-1     :     0.005330
      f+2     :     0.010005
      f-2     :     0.005903
      f+3     :     0.005050
      f-3     :     0.004665
  8 C s       :     2.797176  s :     2.797176
      pz      :     1.068498  p :     2.843730
      px      :     0.917494
      py      :     0.857739
      dz2     :     0.129228  d :     0.406060
      dxz     :     0.115301
      dyz     :     0.099927
      dx2y2   :     0.032070
      dxy     :     0.029533
      f0      :     0.015235  f :     0.062440
      f+1     :     0.018329
      f-1     :     0.009042
      f+2     :     0.008896
      f-2     :     0.008695
      f+3     :     0.001121
      f-3     :     0.001122
  9 N s       :     3.300474  s :     3.300474
      pz      :     1.359010  p :     3.461327
      px      :     1.108747
      py      :     0.993570
      dz2     :     0.036210  d :     0.110808
      dxz     :     0.033634
      dyz     :     0.024409
      dx2y2   :     0.008387
      dxy     :     0.008169
      f0      :     0.004214  f :     0.016901
      f+1     :     0.005027
      f-1     :     0.002332
      f+2     :     0.002477
      f-2     :     0.002272
      f+3     :     0.000293
      f-3     :     0.000286
 10 C s       :     2.797164  s :     2.797164
      pz      :     0.840618  p :     2.843864
      px      :     1.148569
      py      :     0.854677
      dz2     :     0.038824  d :     0.406109
      dxz     :     0.120630
      dyz     :     0.000597
      dx2y2   :     0.117870
      dxy     :     0.128188
      f0      :     0.006608  f :     0.062468
      f+1     :     0.010034
      f-1     :     0.001121
      f+2     :     0.011248
      f-2     :     0.000068
      f+3     :     0.016139
      f-3     :     0.017249
 11 N s       :     3.300272  s :     3.300272
      pz      :     0.986094  p :     3.461373
      px      :     1.486214
      py      :     0.989065
      dz2     :     0.011513  d :     0.110817
      dxz     :     0.032613
      dyz     :     0.000017
      dx2y2   :     0.034505
      dxy     :     0.032169
      f0      :     0.001841  f :     0.016907
      f+1     :     0.002720
      f-1     :     0.000296
      f+2     :     0.003069
      f-2     :     0.000006
      f+3     :     0.004531
      f-3     :     0.004445
 12 C s       :     2.665494  s :     2.665494
      pz      :     0.925996  p :     2.703216
      px      :     1.000923
      py      :     0.776297
      dz2     :     0.085168  d :     0.498702
      dxz     :     0.158203
      dyz     :     0.018843
      dx2y2   :     0.102397
      dxy     :     0.134092
      f0      :     0.004762  f :     0.060072
      f+1     :     0.017580
      f-1     :     0.000815
      f+2     :     0.010748
      f-2     :     0.004376
      f+3     :     0.011651
      f-3     :     0.010141
 13 C s       :     2.691564  s :     2.691564
      pz      :     0.960111  p :     2.832311
      px      :     1.009881
      py      :     0.862318
      dz2     :     0.120359  d :     0.495386
      dxz     :     0.186434
      dyz     :     0.057262
      dx2y2   :     0.061156
      dxy     :     0.070174
      f0      :     0.012818  f :     0.055177
      f+1     :     0.009929
      f-1     :     0.005190
      f+2     :     0.010833
      f-2     :     0.005216
      f+3     :     0.005761
      f-3     :     0.005430
 14 C s       :     2.797186  s :     2.797186
      pz      :     1.063716  p :     2.843726
      px      :     0.922464
      py      :     0.857546
      dz2     :     0.125144  d :     0.406020
      dxz     :     0.116985
      dyz     :     0.090456
      dx2y2   :     0.034189
      dxy     :     0.039247
      f0      :     0.014437  f :     0.062451
      f+1     :     0.018332
      f-1     :     0.008098
      f+2     :     0.009481
      f-2     :     0.009367
      f+3     :     0.001338
      f-3     :     0.001398
 15 N s       :     3.300437  s :     3.300437
      pz      :     1.346904  p :     3.461264
      px      :     1.120870
      py      :     0.993490
      dz2     :     0.035163  d :     0.110814
      dxz     :     0.033797
      dyz     :     0.023503
      dx2y2   :     0.009298
      dxy     :     0.009053
      f0      :     0.003960  f :     0.016905
      f+1     :     0.005032
      f-1     :     0.002109
      f+2     :     0.002665
      f-2     :     0.002426
      f+3     :     0.000361
      f-3     :     0.000352
 16 C s       :     2.797181  s :     2.797181
      pz      :     1.067404  p :     2.843780
      px      :     0.918198
      py      :     0.858178
      dz2     :     0.126459  d :     0.406006
      dxz     :     0.116927
      dyz     :     0.092189
      dx2y2   :     0.032794
      dxy     :     0.037637
      f0      :     0.014840  f :     0.062442
      f+1     :     0.018265
      f-1     :     0.008528
      f+2     :     0.009173
      f-2     :     0.009125
      f+3     :     0.001233
      f-3     :     0.001279
 17 N s       :     3.300464  s :     3.300464
      pz      :     1.352975  p :     3.461154
      px      :     1.113922
      py      :     0.994258
      dz2     :     0.035600  d :     0.110824
      dxz     :     0.033699
      dyz     :     0.023963
      dx2y2   :     0.008891
      dxy     :     0.008671
      f0      :     0.004071  f :     0.016904
      f+1     :     0.005011
      f-1     :     0.002224
      f+2     :     0.002578
      f-2     :     0.002366
      f+3     :     0.000331
      f-3     :     0.000322


                      *****************************
                      * MAYER POPULATION ANALYSIS *
                      *****************************

  NA   - Mulliken gross atomic population
  ZA   - Total nuclear charge
  QA   - Mulliken gross atomic charge
  VA   - Mayer's total valence
  BVA  - Mayer's bonded valence
  FA   - Mayer's free valence

  ATOM       NA         ZA         QA         VA         BVA        FA
  0 N      7.0082     7.0000    -0.0082     3.0763     3.0763    -0.0000
  1 C      6.1996     6.0000    -0.1996     3.9717     3.9717    -0.0000
  2 C      5.5013     6.0000     0.4987     3.6714     3.6714    -0.0000
  3 C      6.1952     6.0000    -0.1952     3.9684     3.9684    -0.0000
  4 N      7.0126     7.0000    -0.0126     3.0742     3.0742    -0.0000
  5 C      6.0786     6.0000    -0.0786     4.2200     4.2200    -0.0000
  6 C      6.0778     6.0000    -0.0778     4.2181     4.2181    -0.0000
  7 C      5.5008     6.0000     0.4992     3.6719     3.6719    -0.0000
  8 C      6.1943     6.0000    -0.1943     3.9679     3.9679    -0.0000
  9 N      7.0126     7.0000    -0.0126     3.0742     3.0742    -0.0000
 10 C      6.2001     6.0000    -0.2001     3.9721     3.9721    -0.0000
 11 N      7.0080     7.0000    -0.0080     3.0765     3.0765    -0.0000
 12 C      6.0869     6.0000    -0.0869     4.2302     4.2302    -0.0000
 13 C      5.5087     6.0000     0.4913     3.6743     3.6743    -0.0000
 14 C      6.1957     6.0000    -0.1957     3.9702     3.9702    -0.0000
 15 N      7.0120     7.0000    -0.0120     3.0751     3.0751    -0.0000
 16 C      6.1955     6.0000    -0.1955     3.9702     3.9702    -0.0000
 17 N      7.0122     7.0000    -0.0122     3.0751     3.0751    -0.0000

  Mayer bond orders larger than 0.100000
B(  0-N ,  1-C ) :   2.9502 B(  1-C ,  2-C ) :   0.9756 B(  2-C ,  3-C ) :   0.9701 
B(  2-C ,  5-C ) :   1.5681 B(  3-C ,  4-N ) :   2.9490 B(  5-C ,  6-C ) :   1.2373 
B(  5-C , 12-C ) :   1.2445 B(  6-C ,  7-C ) :   1.5688 B(  6-C , 12-C ) :   1.2415 
B(  7-C ,  8-C ) :   0.9700 B(  7-C , 10-C ) :   0.9753 B(  8-C ,  9-N ) :   2.9489 
B( 10-C , 11-N ) :   2.9505 B( 12-C , 13-C ) :   1.5756 B( 13-C , 14-C ) :   0.9707 
B( 13-C , 16-C ) :   0.9706 B( 14-C , 15-N ) :   2.9500 B( 16-C , 17-N ) :   2.9500 


-------
TIMINGS
-------

Total SCF time: 0 days 0 hours 10 min 38 sec 

Total time                  ....     638.674 sec
Sum of individual times     ....     637.567 sec  ( 99.8%)

Fock matrix formation       ....     634.350 sec  ( 99.3%)
  XC integration            ....       4.984 sec  (  0.8% of F)
    Basis function eval.    ....       1.122 sec  ( 22.5% of XC)
    Density eval.           ....       1.371 sec  ( 27.5% of XC)
    XC-Functional eval.     ....       0.382 sec  (  7.7% of XC)
    XC-Potential eval.      ....       1.920 sec  ( 38.5% of XC)
Diagonalization             ....       0.182 sec  (  0.0%)
Density matrix formation    ....       0.035 sec  (  0.0%)
Population analysis         ....       0.196 sec  (  0.0%)
Initial guess               ....       0.171 sec  (  0.0%)
Orbital Transformation      ....       0.000 sec  (  0.0%)
Orbital Orthonormalization  ....       0.147 sec  (  0.0%)
DIIS solution               ....       0.053 sec  (  0.0%)
SOSCF solution              ....       0.988 sec  (  0.2%)
Grid generation             ....       1.592 sec  (  0.2%)


-------------------------------------------------------------------------------
                          DFT DISPERSION CORRECTION                            
                                                                               
                              DFTD3 V3.1  Rev 1                                
                              USING zero damping                               
-------------------------------------------------------------------------------
The omegaB97X-D3 functional is recognized. Fit by Chai et al.
Active option DFTDOPT                   ...         3   

molecular C6(AA) [au] = 8249.845185 


            DFT-D V3
 parameters
 s6 scaling factor         :     1.0000 
 rs6 scaling factor        :     1.2810 
 s8 scaling factor         :     1.0000 
 rs8 scaling factor        :     1.0940 
 Damping factor alpha6     :    14.0000 
 Damping factor alpha8     :    16.0000 
 ad hoc parameters k1-k3   :    16.0000     1.3333    -4.0000 

 Edisp/kcal,au: -5.438811709124  -0.008667297234 
 E6   /kcal   :  -2.365893140 
 E8   /kcal   :  -3.072918569 
 % E8         :  56.499815287 

-------------------------   ----------------
Dispersion correction           -0.008667297
-------------------------   ----------------


-------------------------   --------------------
FINAL SINGLE POINT ENERGY      -785.563274663175
-------------------------   --------------------

                                *** OPTIMIZATION RUN DONE ***

                            ***************************************
                            *     ORCA property calculations      *
                            ***************************************

                                    ---------------------
                                    Active property flags
                                    ---------------------
   (+) Dipole Moment


------------------------------------------------------------------------------
                       ORCA ELECTRIC PROPERTIES CALCULATION
------------------------------------------------------------------------------

Dipole Moment Calculation                       ... on
Quadrupole Moment Calculation                   ... off
Polarizability Calculation                      ... off
GBWName                                         ... CN6-CP.gbw
Electron density file                           ... CN6-CP.scfp
The origin for moment calculation is the CENTER OF MASS  = ( 5.528122, -1.327429 -3.827160)

-------------
DIPOLE MOMENT
-------------
                                X             Y             Z
Electronic contribution:      0.00264       0.00359      -0.00038
Nuclear contribution   :      0.00001      -0.00002       0.00001
                        -----------------------------------------
Total Dipole Moment    :      0.00265       0.00357      -0.00037
                        -----------------------------------------
Magnitude (a.u.)       :      0.00446
Magnitude (Debye)      :      0.01134



--------------------
Rotational spectrum 
--------------------
 
Rotational constants in cm-1:     0.014468     0.014451     0.007230 
Rotational constants in MHz :   433.728250   433.225957   216.738829 

 Dipole components along the rotational axes: 
x,y,z [a.u.] :     0.002513     0.001087     0.003521 
x,y,z [Debye]:     0.006387     0.002764     0.008949 

 
--------------------------------------------------------------------------
[[9715,1],3]: A high-performance Open MPI point-to-point messaging module
was unable to find any relevant network interfaces:

Module: OpenFabrics (openib)
  Host: compute-0-14

Another transport will be used instead, although this may result in
lower performance.

NOTE: You can disable this warning by setting the MCA parameter
btl_base_warn_component_unused to 0.
--------------------------------------------------------------------------
[compute-0-14.local:10907] 3 more processes have sent help message help-mpi-btl-base.txt / btl:no-nics
[compute-0-14.local:10907] Set MCA parameter "orte_base_help_aggregate" to 0 to see all help / error messages

Timings for individual modules:

Sum of individual times         ...    13788.987 sec (= 229.816 min)
GTO integral calculation        ...       12.575 sec (=   0.210 min)   0.1 %
SCF iterations                  ...     8370.997 sec (= 139.517 min)  60.7 %
SCF Gradient evaluation         ...     5403.135 sec (=  90.052 min)  39.2 %
Geometry relaxation             ...        2.280 sec (=   0.038 min)   0.0 %
                             ****ORCA TERMINATED NORMALLY****
TOTAL RUN TIME: 0 days 3 hours 49 minutes 52 seconds 37 msec
