Warning: no access to tty (Bad file descriptor).
Thus no job control in this shell.

                                 *****************
                                 * O   R   C   A *
                                 *****************

           --- An Ab Initio, DFT and Semiempirical electronic structure package ---

                  #######################################################
                  #                        -***-                        #
                  #          Department of theory and spectroscopy      #
                  #               Directorship: Frank Neese             #
                  #        Max Planck Institute fuer Kohlenforschung    #
                  #                Kaiser Wilhelm Platz 1               #
                  #                 D-45470 Muelheim/Ruhr               #
                  #                      Germany                        #
                  #                                                     #
                  #                  All rights reserved                #
                  #                        -***-                        #
                  #######################################################


                         Program Version 4.2.1 -  RELEASE  -


 With contributions from (in alphabetic order):
   Daniel Aravena         : Magnetic Suceptibility
   Michael Atanasov       : Ab Initio Ligand Field Theory (pilot matlab implementation)
   Alexander A. Auer      : GIAO ZORA, VPT2
   Ute Becker             : Parallelization
   Giovanni Bistoni       : ED, misc. LED, open-shell LED, HFLD
   Martin Brehm           : Molecular dynamics
   Dmytro Bykov           : SCF Hessian
   Vijay G. Chilkuri      : MRCI spin determinant printing, contributions to CSF-ICE
   Dipayan Datta          : RHF DLPNO-CCSD density
   Achintya Kumar Dutta   : EOM-CC, STEOM-CC
   Dmitry Ganyushin       : Spin-Orbit,Spin-Spin,Magnetic field MRCI
   Miquel Garcia          : C-PCM Hessian, Gaussian charge scheme
   Yang Guo               : DLPNO-NEVPT2, CIM, IAO-localization
   Andreas Hansen         : Spin unrestricted coupled pair/coupled cluster methods
   Benjamin Helmich-Paris : CASSCF linear response (MC-RPA)
   Lee Huntington         : MR-EOM, pCC
   Robert Izsak           : Overlap fitted RIJCOSX, COSX-SCS-MP3, EOM
   Christian Kollmar      : KDIIS, OOCD, Brueckner-CCSD(T), CCSD density
   Simone Kossmann        : Meta GGA functionals, TD-DFT gradient, OOMP2, MP2 Hessian
   Martin Krupicka        : AUTO-CI
   Lucas Lang             : DCDCAS
   Dagmar Lenk            : GEPOL surface, SMD
   Dimitrios Liakos       : Extrapolation schemes; Compound Job, initial MDCI parallelization
   Dimitrios Manganas     : Further ROCIS development; embedding schemes
   Dimitrios Pantazis     : SARC Basis sets
   Taras Petrenko         : DFT Hessian,TD-DFT gradient, ASA, ECA, R-Raman, ABS, FL, XAS/XES, NRVS
   Peter Pinski           : DLPNO-MP2, DLPNO-MP2 Gradient
   Christoph Reimann      : Effective Core Potentials
   Marius Retegan         : Local ZFS, SOC
   Christoph Riplinger    : Optimizer, TS searches, QM/MM, DLPNO-CCSD(T), (RO)-DLPNO pert. Triples
   Tobias Risthaus        : Range-separated hybrids, TD-DFT gradient, RPA, STAB
   Michael Roemelt        : Original ROCIS implementation
   Masaaki Saitow         : Open-shell DLPNO-CCSD energy and density
   Barbara Sandhoefer     : DKH picture change effects
   Avijit Sen             : IP-ROCIS
   Kantharuban Sivalingam : CASSCF convergence, NEVPT2, FIC-MRCI
   Bernardo de Souza      : ESD, SOC TD-DFT
   Georgi Stoychev        : AutoAux, RI-MP2 NMR
   Willem Van den Heuvel  : Paramagnetic NMR
   Boris Wezisla          : Elementary symmetry handling
   Frank Wennmohs         : Technical directorship


 We gratefully acknowledge several colleagues who have allowed us to
 interface, adapt or use parts of their codes:
   Stefan Grimme, W. Hujo, H. Kruse,             : VdW corrections, initial TS optimization,
                  C. Bannwarth                     DFT functionals, gCP, sTDA/sTD-DF
   Ed Valeev, F. Pavosevic, A. Kumar             : LibInt (2-el integral package), F12 methods
   Garnet Chan, S. Sharma, J. Yang, R. Olivares  : DMRG
   Ulf Ekstrom                                   : XCFun DFT Library
   Mihaly Kallay                                 : mrcc  (arbitrary order and MRCC methods)
   Andreas Klamt, Michael Diedenhofen            : otool_cosmo (COSMO solvation model)
   Jiri Pittner, Ondrej Demel                    : Mk-CCSD
   Frank Weinhold                                : gennbo (NPA and NBO analysis)
   Christopher J. Cramer and Donald G. Truhlar   : smd solvation model
   Lars Goerigk                                  : TD-DFT with DH, B97 family of functionals
   V. Asgeirsson, H. Jonsson                     : NEB implementation
   FAccTs GmbH                                   : IRC, NEB, NEB-TS, Multilevel, MM, QM/MM, CI optimization
   S Lehtola, MJT Oliveira, MAL Marques          : LibXC Library


 Your calculation uses the libint2 library for the computation of 2-el integrals
 For citations please refer to: http://libint.valeyev.net

 Your ORCA version has been built with support for libXC version: 4.2.3
 For citations please refer to: https://tddft.org/programs/libxc/

 This ORCA versions uses:
   CBLAS   interface :  Fast vector & matrix operations
   LAPACKE interface :  Fast linear algebra routines
   SCALAPACK package :  Parallel linear algebra routines


Your calculation utilizes the atom-pairwise dispersion correction
with the zero-damping scheme (D30)
Cite in your paper:
S.Grimme, J.Antony, S.Ehrlich and H.Krieg, J.Chem.Phys., 132, (2010), 154104 
   

XCFun DFT library Copyright 2009-2010 Ulf Ekstrom and contributors.
See http://admol.org/xcfun for more information. This is free soft-
ware; see the source code for copying conditions. There is ABSOLUTELY
NO WARRANTY; not even for MERCHANTABILITY or FITNESS FOR A PARTICULAR
PURPOSE. For details see the documentation. Scientific users of this 
library should cite U. Ekstrom, L. Visscher, R. Bast, A. J. Thorvald-
sen and K. Ruud; J.Chem.Theor.Comp. 2010, DOI: 10.1021/ct100117s
XCFun Version 0.99 
----- Orbital basis set information -----
Your calculation utilizes the basis: def2-TZVP
   F. Weigend and R. Ahlrichs, Phys. Chem. Chem. Phys. 7, 3297 (2005).

----- AuxJ basis set information -----
Your calculation utilizes the auxiliary basis: def2/J
   F. Weigend, Phys. Chem. Chem. Phys. 8, 1057 (2006).

================================================================================
                                        WARNINGS
                       Please study these warnings very carefully!
================================================================================


WARNING: Geometry Optimization
  ===> : Switching off AutoStart
         For restart on a previous wavefunction, please use MOREAD

INFO   : the flag for use of LIBINT has been found!

================================================================================
                                       INPUT FILE
================================================================================
NAME = TMCN3-CP.inp
|  1> # avogadro generated ORCA input file 
|  2> # Basic Mode
|  3> # 
|  4> ! wB97X-D3 OPT def2-TZVP def2/J CPCM
|  5> %cpcm
|  6>   epsilon 3
|  7> end
|  8> %pal
|  9>  nprocs 4
| 10> end
| 11>  
| 12> 
| 13> * xyz 0 1
| 14>    O        1.15640        0.72843        0.37136
| 15>    C        2.12092        0.10748       -0.07792
| 16>    C        2.27997       -1.34686        0.24144
| 17>    C        3.07202        0.81107       -0.98940
| 18>    C        2.31202        1.70920       -1.95177
| 19>    N        1.68154        2.45427       -2.75014
| 20>    C        4.41287        0.71717       -0.90062
| 21>    C        5.63010        0.22953       -0.35694
| 22>    C        6.43728       -0.51322        0.43315
| 23>    C        7.95728       -0.51298        0.43389
| 24>    N        9.21824       -0.51278        0.43450
| 25>    C        5.89863       -1.52616        1.38493
| 26>    C        4.83722       -1.15013        2.37495
| 27>    O        6.38988       -2.65454        1.40581
| 28>    C        5.65388        1.19146       -1.40056
| 29>    C        6.48133        1.89896       -2.15441
| 30>    C        7.89000        1.74647       -1.96929
| 31>    N        9.03432        1.62570       -1.82226
| 32>    C        6.17058        2.90076       -3.23453
| 33>    C        4.77416        3.19588       -3.65927
| 34>    O        7.08893        3.50433       -3.79399
| 35>    H        1.37236       -1.87817       -0.06003
| 36>    H        2.38197       -1.44338        1.32240
| 37>    H        3.13417       -1.79520       -0.26578
| 38>    H        4.32829       -0.22529        2.10220
| 39>    H        5.28437       -1.03602        3.36504
| 40>    H        4.11171       -1.96754        2.41392
| 41>    H        4.10400        2.49629       -3.20102
| 42>    H        4.68441        3.06762       -4.74101
| 43>    H        4.50866        4.21741       -3.37579
| 44> *
| 45> 
| 46> 
| 47>                          ****END OF INPUT****
================================================================================

                       *****************************
                       * Geometry Optimization Run *
                       *****************************

Geometry optimization settings:
Update method            Update   .... BFGS
Choice of coordinates    CoordSys .... Z-matrix Internals
Initial Hessian          InHess   .... Almoef's Model

Convergence Tolerances:
Energy Change            TolE     ....  5.0000e-06 Eh
Max. Gradient            TolMAXG  ....  3.0000e-04 Eh/bohr
RMS Gradient             TolRMSG  ....  1.0000e-04 Eh/bohr
Max. Displacement        TolMAXD  ....  4.0000e-03 bohr
RMS Displacement         TolRMSD  ....  2.0000e-03 bohr
Strict Convergence                ....  False
------------------------------------------------------------------------------
                        ORCA OPTIMIZATION COORDINATE SETUP
------------------------------------------------------------------------------

The optimization will be done in new redundant internal coordinates
Making redundant internal coordinates   ...  (new redundants) done
Evaluating the initial hessian          ...  (Almloef) done
Evaluating the coordinates              ...  done
Calculating the B-matrix                .... done
Calculating the G-matrix                .... done
Diagonalizing the G-matrix              .... done
Small eigenvalue found = 4.083e-03
Small eigenvalue found = 5.305e-03
Small eigenvalue found = 1.509e-02
Small eigenvalue found = 1.725e-02
Small eigenvalue found = 2.309e-02
Small eigenvalue found = 2.830e-02
The first mode is                       ....   48
The number of degrees of freedom        ....   84

    -----------------------------------------------------------------
                    Redundant Internal Coordinates


    -----------------------------------------------------------------
         Definition                    Initial Value    Approx d2E/dq
    -----------------------------------------------------------------
      1. B(C   1,O   0)                  1.2320         1.000035   
      2. B(C   2,C   1)                  1.4975         0.421007   
      3. B(C   3,C   1)                  1.4935         0.427241   
      4. B(C   4,C   3)                  1.5200         0.387557   
      5. B(N   5,C   4)                  1.2610         0.898969   
      6. B(C   6,C   3)                  1.3471         0.731547   
      7. B(C   7,C   6)                  1.4195         0.560590   
      8. B(C   8,C   7)                  1.3518         0.718832   
      9. B(C   9,C   8)                  1.5200         0.387553   
     10. B(N  10,C   9)                  1.2610         0.898981   
     11. B(C  11,C   8)                  1.4907         0.431655   
     12. B(C  12,C  11)                  1.4994         0.418057   
     13. B(O  13,C  11)                  1.2309         1.004110   
     14. B(C  14,C   7)                  1.4195         0.560599   
     15. B(C  14,C   6)                  1.4195         0.560614   
     16. B(C  15,C  14)                  1.3242         0.795628   
     17. B(C  16,C  15)                  1.4289         0.541514   
     18. B(N  17,C  16)                  1.1600         1.302497   
     19. B(C  18,C  15)                  1.5056         0.408609   
     20. B(C  19,C  18)                  1.4891         0.434104   
     21. B(O  20,C  18)                  1.2332         0.995680   
     22. B(H  21,C   2)                  1.0940         0.354791   
     23. B(H  22,C   2)                  1.0900         0.360043   
     24. B(H  23,C   2)                  1.0899         0.360198   
     25. B(H  24,C  12)                  1.0903         0.359717   
     26. B(H  25,C  12)                  1.0924         0.356996   
     27. B(H  26,C  12)                  1.0936         0.355320   
     28. B(H  27,C  19)                  1.0717         0.385146   
     29. B(H  28,C  19)                  1.0930         0.356142   
     30. B(H  29,C  19)                  1.0929         0.356317   
     31. A(O   0,C   1,C   2)          119.6631         0.438349   
     32. A(C   2,C   1,C   3)          121.3367         0.379570   
     33. A(O   0,C   1,C   3)          118.9279         0.439513   
     34. A(C   1,C   2,H  22)          107.9042         0.330763   
     35. A(C   1,C   2,H  21)          108.9519         0.329961   
     36. A(H  21,C   2,H  22)          107.9319         0.290155   
     37. A(H  22,C   2,H  23)          110.5934         0.290845   
     38. A(H  21,C   2,H  23)          108.7941         0.290174   
     39. A(C   1,C   2,H  23)          112.5504         0.330787   
     40. A(C   4,C   3,C   6)          125.4935         0.411091   
     41. A(C   1,C   3,C   6)          124.1141         0.418277   
     42. A(C   1,C   3,C   4)          110.2649         0.374176   
     43. L(C   3,C   4,N   5,C   1, 2) 180.0004         0.423694   
     44. L(C   3,C   4,N   5,C   1, 1) 180.0002         0.423694   
     45. A(C   7,C   6,C  14)           60.0001         0.418688   
     46. A(C   3,C   6,C  14)          145.4590         0.439161   
     47. A(C   3,C   6,C   7)          154.5192         0.439157   
     48. A(C   8,C   7,C  14)          142.3741         0.437772   
     49. A(C   6,C   7,C  14)           59.9996         0.418686   
     50. A(C   6,C   7,C   8)          157.6089         0.437771   
     51. A(C   9,C   8,C  11)          111.1706         0.374840   
     52. A(C   7,C   8,C  11)          122.0573         0.417737   
     53. A(C   7,C   8,C   9)          126.6766         0.409815   
     54. L(C   8,C   9,N  10,C  11, 2) 179.9998         0.423695   
     55. L(C   8,C   9,N  10,C  11, 1) 180.0002         0.423695   
     56. A(C  12,C  11,O  13)          120.0822         0.438114   
     57. A(C   8,C  11,O  13)          119.3118         0.440653   
     58. A(C   8,C  11,C  12)          120.4623         0.379784   
     59. A(C  11,C  12,H  26)          107.8001         0.329659   
     60. A(H  25,C  12,H  26)          108.5019         0.289836   
     61. A(H  24,C  12,H  26)          109.4665         0.290181   
     62. A(H  24,C  12,H  25)          109.2207         0.290396   
     63. A(C  11,C  12,H  25)          109.5661         0.329915   
     64. A(C  11,C  12,H  24)          112.2093         0.330330   
     65. A(C   7,C  14,C  15)          142.2846         0.445877   
     66. A(C   6,C  14,C  15)          157.7146         0.445879   
     67. A(C   6,C  14,C   7)           60.0004         0.418689   
     68. A(C  16,C  15,C  18)          111.5563         0.393517   
     69. A(C  14,C  15,C  18)          129.4155         0.421225   
     70. A(C  14,C  15,C  16)          119.0278         0.443090   
     71. L(C  15,C  16,N  17,C  18, 2) 180.0011         0.481624   
     72. L(C  15,C  16,N  17,C  18, 1) 179.7776         0.481624   
     73. A(C  15,C  18,C  19)          122.0081         0.378654   
     74. A(C  19,C  18,O  20)          118.1611         0.440432   
     75. A(C  15,C  18,O  20)          119.8308         0.435650   
     76. A(H  28,C  19,H  29)          110.2705         0.289855   
     77. A(H  27,C  19,H  29)          110.3250         0.293445   
     78. A(C  18,C  19,H  29)          109.8205         0.331873   
     79. A(H  27,C  19,H  28)          107.1717         0.293423   
     80. A(C  18,C  19,H  28)          109.6353         0.331846   
     81. A(C  18,C  19,H  27)          109.5764         0.336188   
     82. D(H  21,C   2,C   1,O   0)     55.5456         0.013105   
     83. D(H  23,C   2,C   1,C   3)     -0.5705         0.013105   
     84. D(H  22,C   2,C   1,O   0)    -61.3932         0.013105   
     85. D(H  21,C   2,C   1,C   3)   -121.3292         0.013105   
     86. D(H  23,C   2,C   1,O   0)    176.3043         0.013105   
     87. D(H  22,C   2,C   1,C   3)    121.7320         0.013105   
     88. D(C   4,C   3,C   1,C   2)    136.5679         0.012477   
     89. D(C   6,C   3,C   1,O   0)    135.7579         0.012477   
     90. D(C   6,C   3,C   1,C   2)    -47.3448         0.012477   
     91. D(C   4,C   3,C   1,O   0)    -40.3293         0.012477   
     92. D(C  14,C   6,C   3,C   4)      1.1459         0.037986   
     93. D(C   7,C   6,C   3,C   1)      2.6786         0.037986   
     94. D(C   7,C   6,C   3,C   4)    178.1691         0.037986   
     95. D(C  14,C   6,C   3,C   1)   -174.3446         0.037986   
     96. D(C   8,C   7,C   6,C   3)      3.8759         0.021528   
     97. D(C  14,C   7,C   6,C   3)   -178.0516         0.021528   
     98. D(C   8,C   7,C   6,C  14)   -178.0725         0.021528   
     99. D(C  11,C   8,C   7,C  14)   -175.1687         0.036561   
    100. D(C  11,C   8,C   7,C   6)      2.0966         0.036561   
    101. D(C   9,C   8,C   7,C  14)      0.9550         0.036561   
    102. D(C   9,C   8,C   7,C   6)    178.2203         0.036561   
    103. D(O  13,C  11,C   8,C   9)    -44.9185         0.012727   
    104. D(O  13,C  11,C   8,C   7)    131.7483         0.012727   
    105. D(C  12,C  11,C   8,C   9)    130.7282         0.012727   
    106. D(C  12,C  11,C   8,C   7)    -52.6050         0.012727   
    107. D(H  26,C  12,C  11,C   8)    138.5751         0.012927   
    108. D(H  25,C  12,C  11,O  13)     72.0817         0.012927   
    109. D(H  25,C  12,C  11,C   8)   -103.5315         0.012927   
    110. D(H  24,C  12,C  11,O  13)   -166.4188         0.012927   
    111. D(H  26,C  12,C  11,O  13)    -45.8118         0.012927   
    112. D(H  24,C  12,C  11,C   8)     17.9681         0.012927   
    113. D(C  15,C  14,C   7,C   8)     -1.3988         0.021529   
    114. D(C  15,C  14,C   7,C   6)    179.8037         0.021529   
    115. D(C   6,C  14,C   7,C   8)    178.7975         0.021529   
    116. D(C  15,C  14,C   6,C   7)   -179.6834         0.021530   
    117. D(C  15,C  14,C   6,C   3)     -1.1617         0.021530   
    118. D(C   7,C  14,C   6,C   3)    178.5217         0.021530   
    119. D(C  18,C  15,C  14,C   7)   -179.5847         0.045690   
    120. D(C  18,C  15,C  14,C   6)     -0.0328         0.045690   
    121. D(C  16,C  15,C  14,C   7)      0.1326         0.045690   
    122. D(C  16,C  15,C  14,C   6)    179.6844         0.045690   
    123. D(O  20,C  18,C  15,C  16)     -2.7199         0.011455   
    124. D(O  20,C  18,C  15,C  14)    177.0142         0.011455   
    125. D(C  19,C  18,C  15,C  16)    177.3177         0.011455   
    126. D(C  19,C  18,C  15,C  14)     -2.9481         0.011455   
    127. D(H  29,C  19,C  18,O  20)    -67.3854         0.013912   
    128. D(H  29,C  19,C  18,C  15)    112.5775         0.013912   
    129. D(H  28,C  19,C  18,O  20)     53.9199         0.013912   
    130. D(H  28,C  19,C  18,C  15)   -126.1172         0.013912   
    131. D(H  27,C  19,C  18,O  20)    171.2794         0.013912   
    132. D(H  27,C  19,C  18,C  15)     -8.7577         0.013912   
    -----------------------------------------------------------------

Number of atoms                         .... 30
Number of degrees of freedom            .... 132

         *************************************************************
         *                GEOMETRY OPTIMIZATION CYCLE   1            *
         *************************************************************
---------------------------------
CARTESIAN COORDINATES (ANGSTROEM)
---------------------------------
  O      1.156400    0.728430    0.371360
  C      2.120920    0.107480   -0.077920
  C      2.279970   -1.346860    0.241440
  C      3.072020    0.811070   -0.989400
  C      2.312020    1.709200   -1.951770
  N      1.681540    2.454270   -2.750140
  C      4.412870    0.717170   -0.900620
  C      5.630100    0.229530   -0.356940
  C      6.437280   -0.513220    0.433150
  C      7.957280   -0.512980    0.433890
  N      9.218240   -0.512780    0.434500
  C      5.898630   -1.526160    1.384930
  C      4.837220   -1.150130    2.374950
  O      6.389880   -2.654540    1.405810
  C      5.653880    1.191460   -1.400560
  C      6.481330    1.898960   -2.154410
  C      7.890000    1.746470   -1.969290
  N      9.034320    1.625700   -1.822260
  C      6.170580    2.900760   -3.234530
  C      4.774160    3.195880   -3.659270
  O      7.088930    3.504330   -3.793990
  H      1.372360   -1.878170   -0.060030
  H      2.381970   -1.443380    1.322400
  H      3.134170   -1.795200   -0.265780
  H      4.328290   -0.225290    2.102200
  H      5.284370   -1.036020    3.365040
  H      4.111710   -1.967540    2.413920
  H      4.104000    2.496290   -3.201020
  H      4.684410    3.067620   -4.741010
  H      4.508660    4.217410   -3.375790

----------------------------
CARTESIAN COORDINATES (A.U.)
----------------------------
  NO LB      ZA    FRAG     MASS         X           Y           Z
   0 O     8.0000    0    15.999    2.185279    1.376533    0.701769
   1 C     6.0000    0    12.011    4.007958    0.203108   -0.147247
   2 C     6.0000    0    12.011    4.308519   -2.545197    0.456255
   3 C     6.0000    0    12.011    5.805276    1.532700   -1.869695
   4 C     6.0000    0    12.011    4.369085    3.229920   -3.688311
   5 N     7.0000    0    14.007    3.177650    4.637898   -5.197011
   6 C     6.0000    0    12.011    8.339116    1.355255   -1.701925
   7 C     6.0000    0    12.011   10.639347    0.433749   -0.674519
   8 C     6.0000    0    12.011   12.164696   -0.969845    0.818535
   9 C     6.0000    0    12.011   15.037080   -0.969392    0.819933
  10 N     7.0000    0    14.007   17.419949   -0.969014    0.821086
  11 C     6.0000    0    12.011   11.146795   -2.884024    2.617138
  12 C     6.0000    0    12.011    9.141021   -2.173431    4.488005
  13 O     8.0000    0    15.999   12.075123   -5.016354    2.656596
  14 C     6.0000    0    12.011   10.684285    2.251533   -2.646675
  15 C     6.0000    0    12.011   12.247939    3.588514   -4.071245
  16 C     6.0000    0    12.011   14.909939    3.300350   -3.721419
  17 N     7.0000    0    14.007   17.072391    3.072128   -3.443572
  18 C     6.0000    0    12.011   11.660706    5.481642   -6.112376
  19 C     6.0000    0    12.011    9.021855    6.039338   -6.915018
  20 O     8.0000    0    15.999   13.396136    6.622224   -7.169602
  21 H     1.0000    0     1.008    2.593385   -3.549227   -0.113440
  22 H     1.0000    0     1.008    4.501271   -2.727593    2.498974
  23 H     1.0000    0     1.008    5.922723   -3.392436   -0.502251
  24 H     1.0000    0     1.008    8.179283   -0.425736    3.972582
  25 H     1.0000    0     1.008    9.986012   -1.957794    6.359004
  26 H     1.0000    0     1.008    7.770006   -3.718112    4.561648
  27 H     1.0000    0     1.008    7.755436    4.717304   -6.049051
  28 H     1.0000    0     1.008    8.852252    5.796962   -8.959210
  29 H     1.0000    0     1.008    8.520133    7.969750   -6.379319

--------------------------------
INTERNAL COORDINATES (ANGSTROEM)
--------------------------------
 O      0   0   0     0.000000000000     0.00000000     0.00000000
 C      1   0   0     1.231961952050     0.00000000     0.00000000
 C      2   1   0     1.497462035479   119.66307441     0.00000000
 C      2   1   3     1.493461043516   118.92794221   176.95019766
 C      4   2   1     1.519997866380   110.26492194   319.67069644
 N      5   4   2     1.260963517395   179.99972043   235.85424437
 C      4   2   1     1.347062664058   124.11405708   135.75793819
 C      7   4   2     1.419517377456   154.51919212     2.67856424
 C      8   7   4     1.351835538444   157.60886394     3.87591963
 C      9   8   7     1.520000199079   126.67655147   178.22025962
 N     10   9   8     1.260960163407   179.99981863   329.79653486
 C      9   8   7     1.490663085509   122.05730349     2.09655946
 C     12   9   8     1.499376320141   120.46230316   307.39501289
 O     12   9   8     1.230854971676   119.31176476   131.74828712
 C      7   4   2     1.419505839298   145.45896370   185.65535172
 C     15   7   4     1.324205261657   157.71455506   358.83833227
 C     16  15   7     1.428941490545   119.02777288   179.68442672
 N     17  16  15     1.160030808298   179.77760514   180.07295061
 C     16  15   7     1.505598889778   129.41546183   359.96715984
 C     19  16  15     1.489123466473   122.00807375   357.05191204
 O     19  16  15     1.233150014799   119.83082642   177.01424554
 H      3   2   1     1.094043138592   108.95185337    55.54561045
 H      3   2   1     1.090043408310   107.90419036   298.60677299
 H      3   2   1     1.089925925923   112.55043985   176.30429341
 H     13  12   9     1.090289563832   112.20931825    17.96806732
 H     13  12   9     1.092356362503   109.56612839   256.46851655
 H     13  12   9     1.093637293210   107.80010260   138.57505612
 H     20  19  16     1.071696625076   109.57642621   351.24232571
 H     20  19  16     1.093008288029   109.63534314   233.88279185
 H     20  19  16     1.092874513062   109.82049024   112.57749819

---------------------------
INTERNAL COORDINATES (A.U.)
---------------------------
 O      0   0   0     0.000000000000     0.00000000     0.00000000
 C      1   0   0     2.328070696786     0.00000000     0.00000000
 C      2   1   0     2.829793142999   119.66307441     0.00000000
 C      2   1   3     2.822232363926   118.92794221   176.95019766
 C      4   2   1     2.872379691603   110.26492194   319.67069644
 N      5   4   2     2.382875712742   179.99972043   235.85424437
 C      4   2   1     2.545579520301   124.11405708   135.75793819
 C      7   4   2     2.682499085734   154.51919212     2.67856424
 C      8   7   4     2.554598945761   157.60886394     3.87591963
 C      9   8   7     2.872384099765   126.67655147   178.22025962
 N     10   9   8     2.382869374624   179.99981863   329.79653486
 C      9   8   7     2.816944989559   122.05730349     2.09655946
 C     12   9   8     2.833410616753   120.46230316   307.39501289
 O     12   9   8     2.325978807043   119.31176476   131.74828712
 C      7   4   2     2.682477281775   145.45896370   185.65535172
 C     15   7   4     2.502385289629   157.71455506   358.83833227
 C     16  15   7     2.700308078527   119.02777288   179.68442672
 N     17  16  15     2.192140534594   179.77760514   180.07295061
 C     16  15   7     2.845169569216   129.41546183   359.96715984
 C     19  16  15     2.814035531229   122.00807375   357.05191204
 O     19  16  15     2.330315810012   119.83082642   177.01424554
 H      3   2   1     2.067441910634   108.95185337    55.54561045
 H      3   2   1     2.059883515792   107.90419036   298.60677299
 H      3   2   1     2.059661506256   112.55043985   176.30429341
 H     13  12   9     2.060348682314   112.20931825    17.96806732
 H     13  12   9     2.064254365776   109.56612839   256.46851655
 H     13  12   9     2.066674974010   107.80010260   138.57505612
 H     20  19  16     2.025213120042   109.57642621   351.24232571
 H     20  19  16     2.065486326481   109.63534314   233.88279185
 H     20  19  16     2.065233528429   109.82049024   112.57749819

---------------------
BASIS SET INFORMATION
---------------------
There are 4 groups of distinct atoms

 Group   1 Type O   : 11s6p2d1f contracted to 5s3p2d1f pattern {62111/411/11/1}
 Group   2 Type C   : 11s6p2d1f contracted to 5s3p2d1f pattern {62111/411/11/1}
 Group   3 Type N   : 11s6p2d1f contracted to 5s3p2d1f pattern {62111/411/11/1}
 Group   4 Type H   : 5s1p contracted to 3s1p pattern {311/1}

Atom   0O    basis set group =>   1
Atom   1C    basis set group =>   2
Atom   2C    basis set group =>   2
Atom   3C    basis set group =>   2
Atom   4C    basis set group =>   2
Atom   5N    basis set group =>   3
Atom   6C    basis set group =>   2
Atom   7C    basis set group =>   2
Atom   8C    basis set group =>   2
Atom   9C    basis set group =>   2
Atom  10N    basis set group =>   3
Atom  11C    basis set group =>   2
Atom  12C    basis set group =>   2
Atom  13O    basis set group =>   1
Atom  14C    basis set group =>   2
Atom  15C    basis set group =>   2
Atom  16C    basis set group =>   2
Atom  17N    basis set group =>   3
Atom  18C    basis set group =>   2
Atom  19C    basis set group =>   2
Atom  20O    basis set group =>   1
Atom  21H    basis set group =>   4
Atom  22H    basis set group =>   4
Atom  23H    basis set group =>   4
Atom  24H    basis set group =>   4
Atom  25H    basis set group =>   4
Atom  26H    basis set group =>   4
Atom  27H    basis set group =>   4
Atom  28H    basis set group =>   4
Atom  29H    basis set group =>   4
---------------------------------
AUXILIARY/J BASIS SET INFORMATION
---------------------------------
There are 4 groups of distinct atoms

 Group   1 Type O   : 12s5p4d2f1g contracted to 6s4p3d1f1g pattern {711111/2111/211/2/1}
 Group   2 Type C   : 12s5p4d2f1g contracted to 6s4p3d1f1g pattern {711111/2111/211/2/1}
 Group   3 Type N   : 12s5p4d2f1g contracted to 6s4p3d1f1g pattern {711111/2111/211/2/1}
 Group   4 Type H   : 5s2p1d contracted to 3s1p1d pattern {311/2/1}

Atom   0O    basis set group =>   1
Atom   1C    basis set group =>   2
Atom   2C    basis set group =>   2
Atom   3C    basis set group =>   2
Atom   4C    basis set group =>   2
Atom   5N    basis set group =>   3
Atom   6C    basis set group =>   2
Atom   7C    basis set group =>   2
Atom   8C    basis set group =>   2
Atom   9C    basis set group =>   2
Atom  10N    basis set group =>   3
Atom  11C    basis set group =>   2
Atom  12C    basis set group =>   2
Atom  13O    basis set group =>   1
Atom  14C    basis set group =>   2
Atom  15C    basis set group =>   2
Atom  16C    basis set group =>   2
Atom  17N    basis set group =>   3
Atom  18C    basis set group =>   2
Atom  19C    basis set group =>   2
Atom  20O    basis set group =>   1
Atom  21H    basis set group =>   4
Atom  22H    basis set group =>   4
Atom  23H    basis set group =>   4
Atom  24H    basis set group =>   4
Atom  25H    basis set group =>   4
Atom  26H    basis set group =>   4
Atom  27H    basis set group =>   4
Atom  28H    basis set group =>   4
Atom  29H    basis set group =>   4
--------------------------------------------------------------------------
[[8034,1],2]: A high-performance Open MPI point-to-point messaging module
was unable to find any relevant network interfaces:

Module: OpenFabrics (openib)
  Host: compute-0-8

Another transport will be used instead, although this may result in
lower performance.

NOTE: You can disable this warning by setting the MCA parameter
btl_base_warn_component_unused to 0.
--------------------------------------------------------------------------


           ************************************************************
           *        Program running with 4 parallel MPI-processes     *
           *              working on a common directory               *
           ************************************************************
------------------------------------------------------------------------------
                           ORCA GTO INTEGRAL CALCULATION
------------------------------------------------------------------------------

                         BASIS SET STATISTICS AND STARTUP INFO

 # of primitive gaussian shells          ...  474
 # of primitive gaussian functions       ... 1038
 # of contracted shells                  ...  267
 # of contracted basis functions         ...  705
 Highest angular momentum                ...    3
 Maximum contraction depth               ...    6
 Integral package used                   ... LIBINT
 Integral threshhold            Thresh   ...  2.500e-11
 Primitive cut-off              TCut     ...  2.500e-12


------------------------------ INTEGRAL EVALUATION ----------------------------


 * One electron integrals 
 Pre-screening matrix                    ... done
 Shell pair data                         ... done (   0.012 sec)

[compute-0-8.local:50162] 3 more processes have sent help message help-mpi-btl-base.txt / btl:no-nics
[compute-0-8.local:50162] Set MCA parameter "orte_base_help_aggregate" to 0 to see all help / error messages
--------------------------------------------------------------------------
[[6293,1],3]: A high-performance Open MPI point-to-point messaging module
was unable to find any relevant network interfaces:

Module: OpenFabrics (openib)
  Host: compute-0-8

Another transport will be used instead, although this may result in
lower performance.

NOTE: You can disable this warning by setting the MCA parameter
btl_base_warn_component_unused to 0.
--------------------------------------------------------------------------


           ************************************************************
           *        Program running with 4 parallel MPI-processes     *
           *              working on a common directory               *
           ************************************************************
-------------------------------------------------------------------------------
                                 ORCA SCF
-------------------------------------------------------------------------------

------------
SCF SETTINGS
------------
Hamiltonian:
 Density Functional     Method          .... DFT(GTOs)
 Exchange Functional    Exchange        .... WB97X-D3
 Correlation Functional Correlation     .... WB97X-D3
 Gradients option       PostSCFGGA      .... off
 Hybrid DFT is turned on
   Fraction HF Exchange ScalHFX         ....  0.195728
   Scaling of DF-GGA-X  ScalDFX         ....  0.000000
   Scaling of DF-GGA-C  ScalDFC         ....  1.000000
   Scaling of DF-LDA-C  ScalLDAC        ....  1.000000
   Perturbative correction              ....  0.000000
   Density functional embedding theory  .... OFF
 Long-range corrected/Screened/Range-Separated Hybrid DFT is turned on
   Amount of maximum screened exact exchange              ....  0.804272
   Range separation parameter mu (erf(mu*r12)/r12)        ....  0.250000


General Settings:
 Integral files         IntName         .... TMCN3-CP
 Hartree-Fock type      HFTyp           .... RHF
 Total Charge           Charge          ....    0
 Multiplicity           Mult            ....    1
 Number of Electrons    NEL             ....  144
 Basis Dimension        Dim             ....  705
 Nuclear Repulsion      ENuc            ....   1455.8855247537 Eh

Convergence Acceleration:
 DIIS                   CNVDIIS         .... on
   Start iteration      DIISMaxIt       ....    12
   Startup error        DIISStart       ....  0.200000
   # of expansion vecs  DIISMaxEq       ....     5
   Bias factor          DIISBfac        ....   1.050
   Max. coefficient     DIISMaxC        ....  10.000
 Newton-Raphson         CNVNR           .... off
 SOSCF                  CNVSOSCF        .... on
   Start iteration      SOSCFMaxIt      ....   150
   Startup grad/error   SOSCFStart      ....  0.003300
 Level Shifting         CNVShift        .... on
   Level shift para.    LevelShift      ....    0.2500
   Turn off err/grad.   ShiftErr        ....    0.0010
 Zerner damping         CNVZerner       .... off
 Static damping         CNVDamp         .... on
   Fraction old density DampFac         ....    0.7000
   Max. Damping (<1)    DampMax         ....    0.9800
   Min. Damping (>=0)   DampMin         ....    0.0000
   Turn off err/grad.   DampErr         ....    0.1000
 Fernandez-Rico         CNVRico         .... off

SCF Procedure:
 Maximum # iterations   MaxIter         ....   125
 SCF integral mode      SCFMode         .... Direct
   Integral package                     .... LIBINT
 Reset frequency        DirectResetFreq ....    20
 Integral Threshold     Thresh          ....  2.500e-11 Eh
 Primitive CutOff       TCut            ....  2.500e-12 Eh

Convergence Tolerance:
 Convergence Check Mode ConvCheckMode   .... Total+1el-Energy
 Convergence forced     ConvForced      .... 0
 Energy Change          TolE            ....  1.000e-08 Eh
 1-El. energy change                    ....  1.000e-05 Eh
 Orbital Gradient       TolG            ....  1.000e-05
 Orbital Rotation angle TolX            ....  1.000e-05
 DIIS Error             TolErr          ....  5.000e-07


Diagonalization of the overlap matrix:
Smallest eigenvalue                        ... 1.316e-05
Time for diagonalization                   ...    0.242 sec
Threshold for overlap eigenvalues          ... 1.000e-08
Number of eigenvalues below threshold      ... 0
Time for construction of square roots      ...    0.092 sec
Total time needed                          ...    0.336 sec

-------------------
DFT GRID GENERATION
-------------------

General Integration Accuracy     IntAcc      ...  4.340
Radial Grid Type                 RadialGrid  ... Gauss-Chebyshev
Angular Grid (max. acc.)         AngularGrid ... Lebedev-110
Angular grid pruning method      GridPruning ... 3 (G Style)
Weight generation scheme         WeightScheme... Becke
Basis function cutoff            BFCut       ...    1.0000e-11
Integration weight cutoff        WCut        ...    1.0000e-14
Grids for H and He will be reduced by one unit

# of grid points (after initial pruning)     ...  42240 (   0.0 sec)
# of grid points (after weights+screening)   ...  38323 (   0.1 sec)
nearest neighbour list constructed           ...    0.0 sec
Grid point re-assignment to atoms done       ...    0.0 sec
Grid point division into batches done        ...    0.1 sec
Reduced shell lists constructed in    0.3 sec

Total number of grid points                  ...    38323
Total number of batches                      ...      611
Average number of points per batch           ...       62
Average number of grid points per atom       ...     1277
Average number of shells per batch           ...   134.01 (50.19%)
Average number of basis functions per batch  ...   347.77 (49.33%)
Average number of large shells per batch     ...    92.28 (68.86%)
Average number of large basis fcns per batch ...   236.58 (68.03%)
Maximum spatial batch extension              ...  19.25, 17.26, 15.38 au
Average spatial batch extension              ...   0.70,  0.83,  0.79 au

Time for grid setup =    0.497 sec

------------------------------
INITIAL GUESS: MODEL POTENTIAL
------------------------------
Loading Hartree-Fock densities                     ... done
Calculating cut-offs                               ... done
Setting up the integral package                    ... done
Initializing the effective Hamiltonian             ... done
Starting the Coulomb interaction                   ... done (   0.7 sec)
Reading the grid                                   ... done
Mapping shells                                     ... done
Starting the XC term evaluation                    ... done (   0.8 sec)
  promolecular density results
     # of electrons  =    143.998775844
     EX              =   -123.060591906
     EC              =     -4.764095563
     EX+EC           =   -127.824687469
Transforming the Hamiltonian                       ... done (   0.1 sec)
Diagonalizing the Hamiltonian                      ... done (   0.2 sec)
Back transforming the eigenvectors                 ... done (   0.0 sec)
Now organizing SCF variables                       ... done
                      ------------------
                      INITIAL GUESS DONE (   2.5 sec)
                      ------------------

--------------------
CPCM SOLVATION MODEL
--------------------
CPCM parameters:
  Epsilon                                         ...       3.0000
  Refrac                                          ...       1.3300
  Rsolv                                           ...       1.3000
  Surface type                                    ...    GEPOL SES
  Epsilon function type                           ...         CPCM
Radii:
 Radius for O  used is    3.2503 Bohr (=   1.7200 Ang.)
 Radius for C  used is    3.7795 Bohr (=   2.0000 Ang.)
 Radius for N  used is    3.4582 Bohr (=   1.8300 Ang.)
 Radius for H  used is    2.4566 Bohr (=   1.3000 Ang.)
Calculating surface                               ...        done! (  0.1s)
GEPOL surface points                              ...         1076
GEPOL Volume                                      ...    2251.3976
GEPOL Surface-area                                ...    1099.5482
Calculating surface distance matrix               ...        done! (  0.0s)
Performing Cholesky decomposition & store         ...        done! (  0.1s)
Overall time for CPCM initialization              ...                 0.2s
--------------
SCF ITERATIONS
--------------
ITER       Energy         Delta-E        Max-DP      RMS-DP      [F,P]     Damp
               ***  Starting incremental Fock matrix formation  ***
[compute-0-8.local:50181] 3 more processes have sent help message help-mpi-btl-base.txt / btl:no-nics
[compute-0-8.local:50181] Set MCA parameter "orte_base_help_aggregate" to 0 to see all help / error messages
  0   -966.1415390760   0.000000000000 0.09931490  0.00096023  0.2608486 0.7000
  1   -966.4193755516  -0.277836475526 0.08161294  0.00077515  0.1149946 0.7000
                               ***Turning on DIIS***
  2   -966.5268515805  -0.107476028963 0.13594016  0.00146354  0.0541943 0.0000
  3   -966.7201653330  -0.193313752518 0.05305760  0.00051788  0.0592891 0.0000
  4   -966.7491596272  -0.028994294187 0.01105680  0.00015445  0.0221495 0.0000
                      *** Initiating the SOSCF procedure ***
                           *** Shutting down DIIS ***
                      *** Re-Reading the Fockian *** 
                      *** Removing any level shift *** 
ITER      Energy       Delta-E        Grad      Rot      Max-DP    RMS-DP
  5   -966.75199740  -0.0028377721  0.002108  0.002108  0.006094  0.000081
               *** Restarting incremental Fock matrix formation ***
  6   -966.75231884  -0.0003214439  0.001533  0.003795  0.004282  0.000053
  7   -966.75247469  -0.0001558469  0.000868  0.005369  0.005550  0.000065
  8   -966.75251580  -0.0000411063  0.000844  0.001960  0.001805  0.000026
  9   -966.75254287  -0.0000270689  0.000172  0.000615  0.000787  0.000009
 10   -966.75254302  -0.0000001525  0.000176  0.000289  0.000365  0.000004
 11   -966.75254485  -0.0000018278  0.000029  0.000153  0.000139  0.000002
 12   -966.75254489  -0.0000000491  0.000026  0.000055  0.000043  0.000001
 13   -966.75254495  -0.0000000586  0.000008  0.000044  0.000029  0.000000
 14   -966.75254496  -0.0000000074  0.000005  0.000026  0.000015  0.000000
                  ***Gradient check signals convergence***
              ***Rediagonalizing the Fockian in SOSCF/NRSCF***

               *****************************************************
               *                     SUCCESS                       *
               *           SCF CONVERGED AFTER  15 CYCLES          *
               *****************************************************

Setting up the final grid:

General Integration Accuracy     IntAcc      ...  4.670
Radial Grid Type                 RadialGrid  ... Gauss-Chebyshev
Angular Grid (max. acc.)         AngularGrid ... Lebedev-302
Angular grid pruning method      GridPruning ... 3 (G Style)
Weight generation scheme         WeightScheme... Becke
Basis function cutoff            BFCut       ...    1.0000e-11
Integration weight cutoff        WCut        ...    1.0000e-14
Grids for H and He will be reduced by one unit

# of grid points (after initial pruning)     ... 160998 (   0.0 sec)
# of grid points (after weights+screening)   ... 143249 (   0.5 sec)
nearest neighbour list constructed           ...    0.0 sec
Grid point re-assignment to atoms done       ...    0.0 sec
Grid point division into batches done        ...    0.8 sec
Reduced shell lists constructed in    1.7 sec

Total number of grid points                  ...   143249
Total number of batches                      ...     2254
Average number of points per batch           ...       63
Average number of grid points per atom       ...     4775
Average number of shells per batch           ...   125.50 (47.00%)
Average number of basis functions per batch  ...   323.42 (45.88%)
Average number of large shells per batch     ...    85.89 (68.44%)
Average number of large basis fcns per batch ...   219.13 (67.75%)
Maximum spatial batch extension              ...  17.13, 25.15, 19.63 au
Average spatial batch extension              ...   0.49,  0.52,  0.51 au

Final grid set up in    2.3 sec
Final integration                            ... done (   3.1 sec)
Change in XC energy                          ...     0.005943847
Integrated number of electrons               ...   144.000009058
Previous integrated no of electrons          ...   144.004146775

----------------
TOTAL SCF ENERGY
----------------

Total Energy       :         -966.74660112 Eh          -26306.51241 eV

Components:
Nuclear Repulsion  :         1455.88552475 Eh           39616.65920 eV
Electronic Energy  :        -2422.63212587 Eh          -65923.17161 eV
One Electron Energy:        -4200.18636526 Eh         -114292.88154 eV
Two Electron Energy:         1777.55423939 Eh           48369.70992 eV
CPCM Dielectric    :           -0.03100092 Eh              -0.84358 eV

Virial components:
Potential Energy   :        -1928.21363825 Eh          -52469.36059 eV
Kinetic Energy     :          961.46703713 Eh           26162.84817 eV
Virial Ratio       :            2.00549115


DFT components:
N(Alpha)           :       72.000004529139 electrons
N(Beta)            :       72.000004529139 electrons
N(Total)           :      144.000009058278 electrons
E(XC)              :      -90.614923996423 Eh       
DFET-embed. en.    :        0.000000000000 Eh       
CPCM Solvation Model Properties:
Surface-charge          :           -0.03085053
Charge-correction       :            0.00021869 Eh               0.00595 eV
Free-energy (cav+disp)  :            0.00542405 Eh               0.14760 eV
Corrected G(solv)       :         -966.74095838 Eh          -26306.35887 eV

---------------
SCF CONVERGENCE
---------------

  Last Energy change         ...   -5.8031e-09  Tolerance :   1.0000e-08
  Last MAX-Density change    ...    2.8058e-05  Tolerance :   1.0000e-07
  Last RMS-Density change    ...    3.4413e-07  Tolerance :   5.0000e-09
  Last Orbital Gradient      ...    1.9950e-06  Tolerance :   1.0000e-05
  Last Orbital Rotation      ...    8.9691e-06  Tolerance :   1.0000e-05

             **** THE GBW FILE WAS UPDATED (TMCN3-CP.gbw) ****
             **** DENSITY FILE WAS UPDATED (TMCN3-CP.scfp) ****
             **** ENERGY FILE WAS UPDATED (TMCN3-CP.en.tmp) ****
             **** THE GBW FILE WAS UPDATED (TMCN3-CP.gbw) ****
             **** DENSITY FILE WAS UPDATED (TMCN3-CP.scfp) ****
----------------
ORBITAL ENERGIES
----------------

  NO   OCC          E(Eh)            E(eV) 
   0   2.0000     -19.268344      -524.3183 
   1   2.0000     -19.266368      -524.2645 
   2   2.0000     -19.255519      -523.9693 
   3   2.0000     -14.492339      -394.3566 
   4   2.0000     -14.485504      -394.1706 
   5   2.0000     -14.451288      -393.2395 
   6   2.0000     -10.424240      -283.6580 
   7   2.0000     -10.421063      -283.5715 
   8   2.0000     -10.410998      -283.2977 
   9   2.0000     -10.409086      -283.2456 
  10   2.0000     -10.408035      -283.2170 
  11   2.0000     -10.406900      -283.1861 
  12   2.0000     -10.398587      -282.9599 
  13   2.0000     -10.397628      -282.9338 
  14   2.0000     -10.389273      -282.7065 
  15   2.0000     -10.388260      -282.6789 
  16   2.0000     -10.384306      -282.5713 
  17   2.0000     -10.346430      -281.5407 
  18   2.0000     -10.305393      -280.4240 
  19   2.0000     -10.305321      -280.4220 
  20   2.0000     -10.288460      -279.9632 
  21   2.0000      -1.199214       -32.6323 
  22   2.0000      -1.197095       -32.5746 
  23   2.0000      -1.186567       -32.2881 
  24   2.0000      -1.117037       -30.3961 
  25   2.0000      -1.051344       -28.6085 
  26   2.0000      -1.031495       -28.0684 
  27   2.0000      -1.022335       -27.8192 
  28   2.0000      -0.976073       -26.5603 
  29   2.0000      -0.970862       -26.4185 
  30   2.0000      -0.945524       -25.7290 
  31   2.0000      -0.890214       -24.2240 
  32   2.0000      -0.886417       -24.1206 
  33   2.0000      -0.880849       -23.9691 
  34   2.0000      -0.776679       -21.1345 
  35   2.0000      -0.770322       -20.9615 
  36   2.0000      -0.736733       -20.0475 
  37   2.0000      -0.726092       -19.7580 
  38   2.0000      -0.721415       -19.6307 
  39   2.0000      -0.713999       -19.4289 
  40   2.0000      -0.628214       -17.0946 
  41   2.0000      -0.625511       -17.0210 
  42   2.0000      -0.613637       -16.6979 
  43   2.0000      -0.606353       -16.4997 
  44   2.0000      -0.593420       -16.1478 
  45   2.0000      -0.577353       -15.7106 
  46   2.0000      -0.572441       -15.5769 
  47   2.0000      -0.571068       -15.5395 
  48   2.0000      -0.562395       -15.3035 
  49   2.0000      -0.556104       -15.1324 
  50   2.0000      -0.545237       -14.8367 
  51   2.0000      -0.533137       -14.5074 
  52   2.0000      -0.531085       -14.4515 
  53   2.0000      -0.522715       -14.2238 
  54   2.0000      -0.515841       -14.0367 
  55   2.0000      -0.513527       -13.9738 
  56   2.0000      -0.506604       -13.7854 
  57   2.0000      -0.506022       -13.7695 
  58   2.0000      -0.497954       -13.5500 
  59   2.0000      -0.492525       -13.4023 
  60   2.0000      -0.481170       -13.0933 
  61   2.0000      -0.479223       -13.0403 
  62   2.0000      -0.469233       -12.7685 
  63   2.0000      -0.468654       -12.7527 
  64   2.0000      -0.466105       -12.6834 
  65   2.0000      -0.448902       -12.2152 
  66   2.0000      -0.434294       -11.8177 
  67   2.0000      -0.400225       -10.8907 
  68   2.0000      -0.397592       -10.8190 
  69   2.0000      -0.387445       -10.5429 
  70   2.0000      -0.384969       -10.4755 
  71   2.0000      -0.383158       -10.4262 
  72   0.0000      -0.134118        -3.6495 
  73   0.0000      -0.004205        -0.1144 
  74   0.0000       0.009857         0.2682 
  75   0.0000       0.014867         0.4046 
  76   0.0000       0.032270         0.8781 
  77   0.0000       0.036533         0.9941 
  78   0.0000       0.047007         1.2791 
  79   0.0000       0.056026         1.5245 
  80   0.0000       0.084745         2.3060 
  81   0.0000       0.089648         2.4395 
  82   0.0000       0.111272         3.0279 
  83   0.0000       0.121201         3.2981 
  84   0.0000       0.124939         3.3998 
  85   0.0000       0.144276         3.9260 
  86   0.0000       0.146557         3.9880 
  87   0.0000       0.152213         4.1419 
  88   0.0000       0.153603         4.1797 
  89   0.0000       0.160558         4.3690 
  90   0.0000       0.164586         4.4786 
  91   0.0000       0.178119         4.8469 
  92   0.0000       0.179428         4.8825 
  93   0.0000       0.195729         5.3260 
  94   0.0000       0.197092         5.3631 
  95   0.0000       0.203567         5.5394 
  96   0.0000       0.206868         5.6292 
  97   0.0000       0.212606         5.7853 
  98   0.0000       0.214694         5.8421 
  99   0.0000       0.223204         6.0737 
 100   0.0000       0.225964         6.1488 
 101   0.0000       0.230791         6.2802 
 102   0.0000       0.243908         6.6371 
 103   0.0000       0.244754         6.6601 
 104   0.0000       0.250362         6.8127 
 105   0.0000       0.254716         6.9312 
 106   0.0000       0.260342         7.0843 
 107   0.0000       0.266223         7.2443 
 108   0.0000       0.270107         7.3500 
 109   0.0000       0.281658         7.6643 
 110   0.0000       0.282525         7.6879 
 111   0.0000       0.291565         7.9339 
 112   0.0000       0.295899         8.0518 
 113   0.0000       0.300785         8.1848 
 114   0.0000       0.305165         8.3040 
 115   0.0000       0.317696         8.6450 
 116   0.0000       0.319343         8.6898 
 117   0.0000       0.322874         8.7858 
 118   0.0000       0.334393         9.0993 
 119   0.0000       0.336181         9.1480 
 120   0.0000       0.343194         9.3388 
 121   0.0000       0.348065         9.4713 
 122   0.0000       0.362315         9.8591 
 123   0.0000       0.365453         9.9445 
 124   0.0000       0.371537        10.1100 
 125   0.0000       0.385655        10.4942 
 126   0.0000       0.388226        10.5642 
 127   0.0000       0.391247        10.6464 
 128   0.0000       0.398975        10.8567 
 129   0.0000       0.409702        11.1486 
 130   0.0000       0.415196        11.2981 
 131   0.0000       0.420280        11.4364 
 132   0.0000       0.425189        11.5700 
 133   0.0000       0.434668        11.8279 
 134   0.0000       0.437845        11.9144 
 135   0.0000       0.443415        12.0659 
 136   0.0000       0.447970        12.1899 
 137   0.0000       0.452803        12.3214 
 138   0.0000       0.459163        12.4945 
 139   0.0000       0.460986        12.5441 
 140   0.0000       0.464147        12.6301 
 141   0.0000       0.467779        12.7289 
 142   0.0000       0.470866        12.8129 
 143   0.0000       0.477042        12.9810 
 144   0.0000       0.477717        12.9993 
 145   0.0000       0.485026        13.1982 
 146   0.0000       0.488473        13.2920 
 147   0.0000       0.495944        13.4953 
 148   0.0000       0.499581        13.5943 
 149   0.0000       0.507088        13.7986 
 150   0.0000       0.511533        13.9195 
 151   0.0000       0.516664        14.0591 
 152   0.0000       0.521459        14.1896 
 153   0.0000       0.524754        14.2793 
 154   0.0000       0.526417        14.3245 
 155   0.0000       0.532267        14.4837 
 156   0.0000       0.539909        14.6917 
 157   0.0000       0.542484        14.7618 
 158   0.0000       0.549857        14.9624 
 159   0.0000       0.552127        15.0241 
 160   0.0000       0.559176        15.2160 
 161   0.0000       0.562600        15.3091 
 162   0.0000       0.571468        15.5504 
 163   0.0000       0.573784        15.6134 
 164   0.0000       0.578569        15.7437 
 165   0.0000       0.583225        15.8704 
 166   0.0000       0.587914        15.9979 
 167   0.0000       0.593157        16.1406 
 168   0.0000       0.601429        16.3657 
 169   0.0000       0.608078        16.5466 
 170   0.0000       0.613111        16.6836 
 171   0.0000       0.619752        16.8643 
 172   0.0000       0.624945        17.0056 
 173   0.0000       0.634656        17.2699 
 174   0.0000       0.636856        17.3297 
 175   0.0000       0.639733        17.4080 
 176   0.0000       0.653142        17.7729 
 177   0.0000       0.656750        17.8711 
 178   0.0000       0.664099        18.0710 
 179   0.0000       0.676530        18.4093 
 180   0.0000       0.683042        18.5865 
 181   0.0000       0.690440        18.7878 
 182   0.0000       0.691874        18.8269 
 183   0.0000       0.694115        18.8878 
 184   0.0000       0.707859        19.2618 
 185   0.0000       0.710350        19.3296 
 186   0.0000       0.718248        19.5445 
 187   0.0000       0.723996        19.7009 
 188   0.0000       0.727489        19.7960 
 189   0.0000       0.736903        20.0522 
 190   0.0000       0.747121        20.3302 
 191   0.0000       0.757323        20.6078 
 192   0.0000       0.763814        20.7844 
 193   0.0000       0.772109        21.0102 
 194   0.0000       0.777778        21.1644 
 195   0.0000       0.784937        21.3592 
 196   0.0000       0.792076        21.5535 
 197   0.0000       0.793723        21.5983 
 198   0.0000       0.803225        21.8569 
 199   0.0000       0.809891        22.0383 
 200   0.0000       0.812743        22.1159 
 201   0.0000       0.817341        22.2410 
 202   0.0000       0.820947        22.3391 
 203   0.0000       0.829967        22.5846 
 204   0.0000       0.838559        22.8184 
 205   0.0000       0.850191        23.1349 
 206   0.0000       0.854679        23.2570 
 207   0.0000       0.860197        23.4072 
 208   0.0000       0.865185        23.5429 
 209   0.0000       0.872578        23.7441 
 210   0.0000       0.884514        24.0689 
 211   0.0000       0.891055        24.2468 
 212   0.0000       0.894210        24.3327 
 213   0.0000       0.904083        24.6013 
 214   0.0000       0.924726        25.1631 
 215   0.0000       0.927392        25.2356 
 216   0.0000       0.933327        25.3971 
 217   0.0000       0.941042        25.6071 
 218   0.0000       0.948938        25.8219 
 219   0.0000       0.958337        26.0777 
 220   0.0000       0.967845        26.3364 
 221   0.0000       0.977018        26.5860 
 222   0.0000       0.979830        26.6625 
 223   0.0000       0.990395        26.9500 
 224   0.0000       0.998188        27.1621 
 225   0.0000       1.000317        27.2200 
 226   0.0000       1.017493        27.6874 
 227   0.0000       1.029555        28.0156 
 228   0.0000       1.038585        28.2613 
 229   0.0000       1.047503        28.5040 
 230   0.0000       1.056978        28.7618 
 231   0.0000       1.063286        28.9335 
 232   0.0000       1.071179        29.1483 
 233   0.0000       1.076935        29.3049 
 234   0.0000       1.081332        29.4245 
 235   0.0000       1.091701        29.7067 
 236   0.0000       1.106252        30.1026 
 237   0.0000       1.111826        30.2543 
 238   0.0000       1.117512        30.4090 
 239   0.0000       1.132345        30.8127 
 240   0.0000       1.138009        30.9668 
 241   0.0000       1.150245        31.2998 
 242   0.0000       1.166057        31.7300 
 243   0.0000       1.168823        31.8053 
 244   0.0000       1.180834        32.1321 
 245   0.0000       1.184383        32.2287 
 246   0.0000       1.203510        32.7492 
 247   0.0000       1.210620        32.9426 
 248   0.0000       1.224713        33.3261 
 249   0.0000       1.229919        33.4678 
 250   0.0000       1.243665        33.8418 
 251   0.0000       1.246524        33.9196 
 252   0.0000       1.254872        34.1468 
 253   0.0000       1.274796        34.6890 
 254   0.0000       1.276500        34.7353 
 255   0.0000       1.286394        35.0046 
 256   0.0000       1.288363        35.0581 
 257   0.0000       1.299546        35.3624 
 258   0.0000       1.303509        35.4703 
 259   0.0000       1.324550        36.0429 
 260   0.0000       1.329758        36.1846 
 261   0.0000       1.336987        36.3813 
 262   0.0000       1.343311        36.5534 
 263   0.0000       1.361347        37.0441 
 264   0.0000       1.378016        37.4977 
 265   0.0000       1.382034        37.6071 
 266   0.0000       1.391289        37.8589 
 267   0.0000       1.397491        38.0277 
 268   0.0000       1.404571        38.2203 
 269   0.0000       1.416234        38.5377 
 270   0.0000       1.423882        38.7458 
 271   0.0000       1.432628        38.9838 
 272   0.0000       1.434280        39.0288 
 273   0.0000       1.444563        39.3085 
 274   0.0000       1.452418        39.5223 
 275   0.0000       1.456925        39.6449 
 276   0.0000       1.462347        39.7925 
 277   0.0000       1.480482        40.2860 
 278   0.0000       1.483944        40.3802 
 279   0.0000       1.487282        40.4710 
 280   0.0000       1.494920        40.6788 
 281   0.0000       1.504121        40.9292 
 282   0.0000       1.518564        41.3222 
 283   0.0000       1.525743        41.5176 
 284   0.0000       1.544370        42.0244 
 285   0.0000       1.548415        42.1345 
 286   0.0000       1.563772        42.5524 
 287   0.0000       1.578577        42.9553 
 288   0.0000       1.584318        43.1115 
 289   0.0000       1.593262        43.3549 
 290   0.0000       1.598992        43.5108 
 291   0.0000       1.603015        43.6202 
 292   0.0000       1.611247        43.8442 
 293   0.0000       1.614436        43.9310 
 294   0.0000       1.620700        44.1015 
 295   0.0000       1.633676        44.4546 
 296   0.0000       1.639995        44.6265 
 297   0.0000       1.642116        44.6842 
 298   0.0000       1.645607        44.7793 
 299   0.0000       1.653556        44.9956 
 300   0.0000       1.663524        45.2668 
 301   0.0000       1.666856        45.3575 
 302   0.0000       1.674176        45.5566 
 303   0.0000       1.681688        45.7611 
 304   0.0000       1.689149        45.9641 
 305   0.0000       1.692009        46.0419 
 306   0.0000       1.708057        46.4786 
 307   0.0000       1.714331        46.6493 
 308   0.0000       1.723431        46.8969 
 309   0.0000       1.729508        47.0623 
 310   0.0000       1.731732        47.1228 
 311   0.0000       1.744335        47.4658 
 312   0.0000       1.759355        47.8745 
 313   0.0000       1.767307        48.0909 
 314   0.0000       1.774469        48.2858 
 315   0.0000       1.786882        48.6235 
 316   0.0000       1.788735        48.6740 
 317   0.0000       1.798716        48.9455 
 318   0.0000       1.808676        49.2166 
 319   0.0000       1.812366        49.3170 
 320   0.0000       1.844658        50.1957 
 321   0.0000       1.854030        50.4507 
 322   0.0000       1.873392        50.9776 
 323   0.0000       1.881469        51.1974 
 324   0.0000       1.895046        51.5668 
 325   0.0000       1.901138        51.7326 
 326   0.0000       1.913404        52.0664 
 327   0.0000       1.921932        52.2984 
 328   0.0000       1.923508        52.3413 
 329   0.0000       1.936965        52.7075 
 330   0.0000       1.947424        52.9921 
 331   0.0000       1.958901        53.3044 
 332   0.0000       1.960276        53.3418 
 333   0.0000       1.968180        53.5569 
 334   0.0000       1.971080        53.6358 
 335   0.0000       1.981737        53.9258 
 336   0.0000       1.985100        54.0173 
 337   0.0000       2.005289        54.5667 
 338   0.0000       2.018428        54.9242 
 339   0.0000       2.037509        55.4434 
 340   0.0000       2.043139        55.5966 
 341   0.0000       2.056949        55.9724 
 342   0.0000       2.064847        56.1873 
 343   0.0000       2.067770        56.2669 
 344   0.0000       2.085549        56.7507 
 345   0.0000       2.093378        56.9637 
 346   0.0000       2.098832        57.1121 
 347   0.0000       2.115562        57.5674 
 348   0.0000       2.121926        57.7405 
 349   0.0000       2.130720        57.9799 
 350   0.0000       2.140431        58.2441 
 351   0.0000       2.151707        58.5509 
 352   0.0000       2.158067        58.7240 
 353   0.0000       2.177054        59.2406 
 354   0.0000       2.180473        59.3337 
 355   0.0000       2.195989        59.7559 
 356   0.0000       2.201887        59.9164 
 357   0.0000       2.206681        60.0468 
 358   0.0000       2.222738        60.4838 
 359   0.0000       2.245165        61.0941 
 360   0.0000       2.259893        61.4948 
 361   0.0000       2.276679        61.9516 
 362   0.0000       2.294496        62.4364 
 363   0.0000       2.301661        62.6314 
 364   0.0000       2.317867        63.0724 
 365   0.0000       2.330486        63.4157 
 366   0.0000       2.337003        63.5931 
 367   0.0000       2.345436        63.8226 
 368   0.0000       2.362424        64.2848 
 369   0.0000       2.368290        64.4445 
 370   0.0000       2.370164        64.4954 
 371   0.0000       2.381363        64.8002 
 372   0.0000       2.396060        65.2001 
 373   0.0000       2.401401        65.3454 
 374   0.0000       2.410433        65.5912 
 375   0.0000       2.412832        65.6565 
 376   0.0000       2.426797        66.0365 
 377   0.0000       2.429276        66.1039 
 378   0.0000       2.440309        66.4042 
 379   0.0000       2.448908        66.6382 
 380   0.0000       2.459714        66.9322 
 381   0.0000       2.468309        67.1661 
 382   0.0000       2.473753        67.3142 
 383   0.0000       2.477143        67.4065 
 384   0.0000       2.494312        67.8737 
 385   0.0000       2.501857        68.0790 
 386   0.0000       2.507153        68.2231 
 387   0.0000       2.517961        68.5172 
 388   0.0000       2.520950        68.5985 
 389   0.0000       2.525933        68.7341 
 390   0.0000       2.535670        68.9991 
 391   0.0000       2.550641        69.4065 
 392   0.0000       2.559831        69.6566 
 393   0.0000       2.577185        70.1288 
 394   0.0000       2.583144        70.2909 
 395   0.0000       2.602656        70.8219 
 396   0.0000       2.608184        70.9723 
 397   0.0000       2.621115        71.3242 
 398   0.0000       2.629224        71.5448 
 399   0.0000       2.638120        71.7869 
 400   0.0000       2.639302        71.8191 
 401   0.0000       2.658898        72.3523 
 402   0.0000       2.670308        72.6628 
 403   0.0000       2.672880        72.7328 
 404   0.0000       2.685977        73.0892 
 405   0.0000       2.696125        73.3653 
 406   0.0000       2.704180        73.5845 
 407   0.0000       2.708821        73.7108 
 408   0.0000       2.718152        73.9647 
 409   0.0000       2.724454        74.1362 
 410   0.0000       2.731464        74.3269 
 411   0.0000       2.737466        74.4902 
 412   0.0000       2.754197        74.9455 
 413   0.0000       2.764755        75.2328 
 414   0.0000       2.768746        75.3414 
 415   0.0000       2.778514        75.6072 
 416   0.0000       2.781922        75.6999 
 417   0.0000       2.794460        76.0411 
 418   0.0000       2.804024        76.3014 
 419   0.0000       2.808199        76.4150 
 420   0.0000       2.815402        76.6110 
 421   0.0000       2.837045        77.1999 
 422   0.0000       2.849605        77.5417 
 423   0.0000       2.850317        77.5611 
 424   0.0000       2.858993        77.7971 
 425   0.0000       2.863644        77.9237 
 426   0.0000       2.881640        78.4134 
 427   0.0000       2.887029        78.5600 
 428   0.0000       2.889848        78.6368 
 429   0.0000       2.899086        78.8881 
 430   0.0000       2.902326        78.9763 
 431   0.0000       2.916478        79.3614 
 432   0.0000       2.929350        79.7117 
 433   0.0000       2.944881        80.1343 
 434   0.0000       2.951195        80.3061 
 435   0.0000       2.966213        80.7147 
 436   0.0000       2.970296        80.8259 
 437   0.0000       2.977031        81.0091 
 438   0.0000       2.989383        81.3452 
 439   0.0000       2.998443        81.5918 
 440   0.0000       3.001528        81.6757 
 441   0.0000       3.008850        81.8750 
 442   0.0000       3.017999        82.1239 
 443   0.0000       3.022785        82.2542 
 444   0.0000       3.030641        82.4679 
 445   0.0000       3.036591        82.6299 
 446   0.0000       3.041329        82.7588 
 447   0.0000       3.046073        82.8879 
 448   0.0000       3.049388        82.9781 
 449   0.0000       3.054365        83.1135 
 450   0.0000       3.070378        83.5492 
 451   0.0000       3.075033        83.6759 
 452   0.0000       3.084953        83.9458 
 453   0.0000       3.089274        84.0634 
 454   0.0000       3.105451        84.5036 
 455   0.0000       3.110021        84.6280 
 456   0.0000       3.115373        84.7736 
 457   0.0000       3.125411        85.0468 
 458   0.0000       3.128167        85.1217 
 459   0.0000       3.136600        85.3512 
 460   0.0000       3.140342        85.4531 
 461   0.0000       3.143125        85.5288 
 462   0.0000       3.157700        85.9254 
 463   0.0000       3.157802        85.9282 
 464   0.0000       3.161256        86.0221 
 465   0.0000       3.170676        86.2785 
 466   0.0000       3.174728        86.3887 
 467   0.0000       3.191095        86.8341 
 468   0.0000       3.199740        87.0694 
 469   0.0000       3.203965        87.1843 
 470   0.0000       3.210573        87.3641 
 471   0.0000       3.213331        87.4392 
 472   0.0000       3.220472        87.6335 
 473   0.0000       3.232045        87.9484 
 474   0.0000       3.237576        88.0989 
 475   0.0000       3.239309        88.1461 
 476   0.0000       3.247628        88.3724 
 477   0.0000       3.254073        88.5478 
 478   0.0000       3.256112        88.6033 
 479   0.0000       3.263520        88.8049 
 480   0.0000       3.267556        88.9147 
 481   0.0000       3.278310        89.2073 
 482   0.0000       3.286874        89.4404 
 483   0.0000       3.289567        89.5137 
 484   0.0000       3.302540        89.8667 
 485   0.0000       3.308138        90.0190 
 486   0.0000       3.316990        90.2599 
 487   0.0000       3.325445        90.4900 
 488   0.0000       3.339499        90.8724 
 489   0.0000       3.344287        91.0027 
 490   0.0000       3.350728        91.1780 
 491   0.0000       3.355532        91.3087 
 492   0.0000       3.371644        91.7471 
 493   0.0000       3.373928        91.8092 
 494   0.0000       3.380777        91.9956 
 495   0.0000       3.388609        92.2087 
 496   0.0000       3.390326        92.2555 
 497   0.0000       3.407783        92.7305 
 498   0.0000       3.422242        93.1239 
 499   0.0000       3.426032        93.2271 
 500   0.0000       3.426983        93.2529 
 501   0.0000       3.440012        93.6075 
 502   0.0000       3.446296        93.7785 
 503   0.0000       3.453454        93.9733 
 504   0.0000       3.463276        94.2405 
 505   0.0000       3.474228        94.5386 
 506   0.0000       3.476924        94.6119 
 507   0.0000       3.490765        94.9885 
 508   0.0000       3.499696        95.2316 
 509   0.0000       3.504297        95.3568 
 510   0.0000       3.515011        95.6483 
 511   0.0000       3.523049        95.8670 
 512   0.0000       3.529589        96.0450 
 513   0.0000       3.544777        96.4583 
 514   0.0000       3.564728        97.0012 
 515   0.0000       3.575324        97.2895 
 516   0.0000       3.578540        97.3770 
 517   0.0000       3.582809        97.4932 
 518   0.0000       3.592601        97.7596 
 519   0.0000       3.614594        98.3581 
 520   0.0000       3.622704        98.5788 
 521   0.0000       3.633077        98.8611 
 522   0.0000       3.641634        99.0939 
 523   0.0000       3.657415        99.5233 
 524   0.0000       3.670573        99.8814 
 525   0.0000       3.676430       100.0407 
 526   0.0000       3.693116       100.4948 
 527   0.0000       3.700689       100.7009 
 528   0.0000       3.718854       101.1952 
 529   0.0000       3.726137       101.3933 
 530   0.0000       3.734399       101.6182 
 531   0.0000       3.754814       102.1737 
 532   0.0000       3.766589       102.4941 
 533   0.0000       3.770678       102.6054 
 534   0.0000       3.778182       102.8096 
 535   0.0000       3.799318       103.3847 
 536   0.0000       3.821934       104.0001 
 537   0.0000       3.839480       104.4776 
 538   0.0000       3.853930       104.8708 
 539   0.0000       3.863732       105.1375 
 540   0.0000       3.876120       105.4746 
 541   0.0000       3.879625       105.5700 
 542   0.0000       3.906936       106.3131 
 543   0.0000       3.914426       106.5169 
 544   0.0000       3.936893       107.1283 
 545   0.0000       3.943696       107.3134 
 546   0.0000       3.949460       107.4703 
 547   0.0000       3.956188       107.6534 
 548   0.0000       3.965301       107.9013 
 549   0.0000       3.978942       108.2725 
 550   0.0000       3.999757       108.8389 
 551   0.0000       4.006254       109.0157 
 552   0.0000       4.009690       109.1092 
 553   0.0000       4.017202       109.3136 
 554   0.0000       4.018383       109.3458 
 555   0.0000       4.024603       109.5150 
 556   0.0000       4.033495       109.7570 
 557   0.0000       4.041619       109.9781 
 558   0.0000       4.044645       110.0604 
 559   0.0000       4.058461       110.4363 
 560   0.0000       4.064218       110.5930 
 561   0.0000       4.070390       110.7609 
 562   0.0000       4.082426       111.0885 
 563   0.0000       4.102684       111.6397 
 564   0.0000       4.117376       112.0395 
 565   0.0000       4.135411       112.5303 
 566   0.0000       4.146626       112.8354 
 567   0.0000       4.170231       113.4777 
 568   0.0000       4.194790       114.1460 
 569   0.0000       4.198591       114.2495 
 570   0.0000       4.214297       114.6769 
 571   0.0000       4.238762       115.3426 
 572   0.0000       4.265989       116.0835 
 573   0.0000       4.273974       116.3007 
 574   0.0000       4.312680       117.3540 
 575   0.0000       4.320519       117.5673 
 576   0.0000       4.341795       118.1463 
 577   0.0000       4.366751       118.8253 
 578   0.0000       4.378888       119.1556 
 579   0.0000       4.399380       119.7132 
 580   0.0000       4.415009       120.1385 
 581   0.0000       4.443433       120.9120 
 582   0.0000       4.451348       121.1273 
 583   0.0000       4.461844       121.4129 
 584   0.0000       4.473669       121.7347 
 585   0.0000       4.481652       121.9520 
 586   0.0000       4.487458       122.1100 
 587   0.0000       4.506308       122.6229 
 588   0.0000       4.510769       122.7443 
 589   0.0000       4.537176       123.4628 
 590   0.0000       4.541342       123.5762 
 591   0.0000       4.573032       124.4385 
 592   0.0000       4.582292       124.6905 
 593   0.0000       4.613582       125.5419 
 594   0.0000       4.614658       125.5712 
 595   0.0000       4.621093       125.7463 
 596   0.0000       4.625015       125.8531 
 597   0.0000       4.637352       126.1888 
 598   0.0000       4.648381       126.4889 
 599   0.0000       4.653349       126.6241 
 600   0.0000       4.670749       127.0975 
 601   0.0000       4.698848       127.8622 
 602   0.0000       4.706372       128.0669 
 603   0.0000       4.710391       128.1763 
 604   0.0000       4.724865       128.5701 
 605   0.0000       4.743481       129.0767 
 606   0.0000       4.769327       129.7800 
 607   0.0000       4.783975       130.1786 
 608   0.0000       4.816066       131.0518 
 609   0.0000       4.852716       132.0491 
 610   0.0000       4.856738       132.1586 
 611   0.0000       4.863569       132.3444 
 612   0.0000       4.886619       132.9717 
 613   0.0000       4.917894       133.8227 
 614   0.0000       4.956697       134.8786 
 615   0.0000       4.964995       135.1044 
 616   0.0000       4.985563       135.6641 
 617   0.0000       5.001912       136.1090 
 618   0.0000       5.021785       136.6497 
 619   0.0000       5.051547       137.4596 
 620   0.0000       5.092836       138.5831 
 621   0.0000       5.112937       139.1301 
 622   0.0000       5.122712       139.3961 
 623   0.0000       5.127450       139.5250 
 624   0.0000       5.157442       140.3411 
 625   0.0000       5.185893       141.1153 
 626   0.0000       5.229256       142.2953 
 627   0.0000       5.248819       142.8276 
 628   0.0000       5.261227       143.1653 
 629   0.0000       5.266327       143.3040 
 630   0.0000       5.270793       143.4256 
 631   0.0000       5.284543       143.7997 
 632   0.0000       5.287551       143.8816 
 633   0.0000       5.302744       144.2950 
 634   0.0000       5.310199       144.4979 
 635   0.0000       5.374054       146.2355 
 636   0.0000       5.385551       146.5483 
 637   0.0000       5.413842       147.3181 
 638   0.0000       5.479858       149.1145 
 639   0.0000       5.500079       149.6648 
 640   0.0000       5.551957       151.0764 
 641   0.0000       5.581933       151.8921 
 642   0.0000       5.593704       152.2124 
 643   0.0000       5.613333       152.7466 
 644   0.0000       5.621462       152.9678 
 645   0.0000       5.630267       153.2074 
 646   0.0000       5.633144       153.2856 
 647   0.0000       5.644031       153.5819 
 648   0.0000       5.705028       155.2417 
 649   0.0000       5.724351       155.7675 
 650   0.0000       5.736973       156.1110 
 651   0.0000       5.777262       157.2073 
 652   0.0000       5.785710       157.4372 
 653   0.0000       5.858186       159.4093 
 654   0.0000       5.865059       159.5964 
 655   0.0000       5.915212       160.9611 
 656   0.0000       5.945436       161.7835 
 657   0.0000       6.008674       163.5043 
 658   0.0000       6.043057       164.4400 
 659   0.0000       6.131971       166.8594 
 660   0.0000       6.166821       167.8077 
 661   0.0000       6.176079       168.0597 
 662   0.0000       6.252556       170.1407 
 663   0.0000       6.358450       173.0222 
 664   0.0000       6.363435       173.1579 
 665   0.0000       6.417532       174.6299 
 666   0.0000       6.454102       175.6251 
 667   0.0000       6.470453       176.0700 
 668   0.0000       6.475224       176.1998 
 669   0.0000       6.554331       178.3524 
 670   0.0000       6.561194       178.5392 
 671   0.0000       6.620467       180.1521 
 672   0.0000       6.638212       180.6349 
 673   0.0000       6.650912       180.9805 
 674   0.0000       6.692029       182.0994 
 675   0.0000       6.881871       187.2652 
 676   0.0000       6.889854       187.4825 
 677   0.0000       6.895400       187.6334 
 678   0.0000       7.081500       192.6974 
 679   0.0000       7.092248       192.9899 
 680   0.0000       7.115524       193.6232 
 681   0.0000       7.120852       193.7682 
 682   0.0000       7.148947       194.5327 
 683   0.0000       7.164272       194.9497 
 684   0.0000      22.461649       611.2125 
 685   0.0000      22.494739       612.1130 
 686   0.0000      22.521450       612.8398 
 687   0.0000      22.588943       614.6764 
 688   0.0000      22.958299       624.7271 
 689   0.0000      23.011682       626.1797 
 690   0.0000      23.057403       627.4238 
 691   0.0000      23.082955       628.1191 
 692   0.0000      23.154578       630.0681 
 693   0.0000      23.200280       631.3117 
 694   0.0000      23.260492       632.9502 
 695   0.0000      23.447434       638.0371 
 696   0.0000      23.713864       645.2870 
 697   0.0000      23.994381       652.9203 
 698   0.0000      24.034664       654.0165 
 699   0.0000      32.098099       873.4337 
 700   0.0000      32.116799       873.9425 
 701   0.0000      32.255720       877.7228 
 702   0.0000      43.935442      1195.5441 
 703   0.0000      43.949686      1195.9318 
 704   0.0000      44.001824      1197.3505 

                    ********************************
                    * MULLIKEN POPULATION ANALYSIS *
                    ********************************

-----------------------
[...]
      dxy     :     0.124765
      f0      :     0.005940  f :     0.051905
      f+1     :     0.006638
      f-1     :     0.004667
      f+2     :     0.009639
      f-2     :     0.006177
      f+3     :     0.007665
      f-3     :     0.011179
  4 C s       :     2.804552  s :     2.804552
      pz      :     0.943265  p :     2.847782
      px      :     0.948572
      py      :     0.955944
      dz2     :     0.078440  d :     0.424244
      dxz     :     0.082295
      dyz     :     0.081907
      dx2y2   :     0.094641
      dxy     :     0.086961
      f0      :     0.005399  f :     0.062531
      f+1     :     0.008367
      f-1     :     0.008180
      f+2     :     0.009635
      f-2     :     0.014351
      f+3     :     0.008457
      f-3     :     0.008141
  5 N s       :     3.296768  s :     3.296768
      pz      :     1.143011  p :     3.494486
      px      :     1.178333
      py      :     1.173142
      dz2     :     0.019468  d :     0.108376
      dxz     :     0.022050
      dyz     :     0.020815
      dx2y2   :     0.022075
      dxy     :     0.023968
      f0      :     0.001513  f :     0.016553
      f+1     :     0.002159
      f-1     :     0.002018
      f+2     :     0.002397
      f-2     :     0.004004
      f+3     :     0.002212
      f-3     :     0.002251
  6 C s       :     2.673500  s :     2.673500
      pz      :     0.868997  p :     2.736144
      px      :     1.005613
      py      :     0.861534
      dz2     :     0.057466  d :     0.501725
      dxz     :     0.150942
      dyz     :     0.025390
      dx2y2   :     0.124205
      dxy     :     0.143722
      f0      :     0.004826  f :     0.058384
      f+1     :     0.011292
      f-1     :     0.001288
      f+2     :     0.008281
      f-2     :     0.006605
      f+3     :     0.014538
      f-3     :     0.011554
  7 C s       :     2.670044  s :     2.670044
      pz      :     0.910417  p :     2.742583
      px      :     0.950557
      py      :     0.881609
      dz2     :     0.109085  d :     0.498901
      dxz     :     0.101814
      dyz     :     0.088849
      dx2y2   :     0.105690
      dxy     :     0.093463
      f0      :     0.006159  f :     0.058753
      f+1     :     0.007710
      f-1     :     0.009087
      f+2     :     0.009149
      f-2     :     0.012717
      f+3     :     0.007903
      f-3     :     0.006028
  8 C s       :     2.712674  s :     2.712674
      pz      :     0.947009  p :     2.828439
      px      :     0.977002
      py      :     0.904428
      dz2     :     0.083176  d :     0.463371
      dxz     :     0.111423
      dyz     :     0.065789
      dx2y2   :     0.106672
      dxy     :     0.096311
      f0      :     0.006138  f :     0.052155
      f+1     :     0.006674
      f-1     :     0.007007
      f+2     :     0.010342
      f-2     :     0.006819
      f+3     :     0.006648
      f-3     :     0.008526
  9 C s       :     2.802924  s :     2.802924
      pz      :     0.840436  p :     2.845721
      px      :     1.148747
      py      :     0.856538
      dz2     :     0.038803  d :     0.418238
      dxz     :     0.130490
      dyz     :     0.004509
      dx2y2   :     0.120599
      dxy     :     0.123836
      f0      :     0.006756  f :     0.062426
      f+1     :     0.009482
      f-1     :     0.001331
      f+2     :     0.010399
      f-2     :     0.001167
      f+3     :     0.016592
      f-3     :     0.016699
 10 N s       :     3.299093  s :     3.299093
      pz      :     1.003759  p :     3.485961
      px      :     1.477059
      py      :     1.005143
      dz2     :     0.011411  d :     0.108859
      dxz     :     0.030686
      dyz     :     0.000812
      dx2y2   :     0.033926
      dxy     :     0.032024
      f0      :     0.001763  f :     0.016608
      f+1     :     0.002634
      f-1     :     0.000359
      f+2     :     0.002647
      f-2     :     0.000298
      f+3     :     0.004472
      f-3     :     0.004437
 11 C s       :     2.759621  s :     2.759621
      pz      :     0.856297  p :     2.662706
      px      :     0.827019
      py      :     0.979390
      dz2     :     0.107275  d :     0.774193
      dxz     :     0.059160
      dyz     :     0.236553
      dx2y2   :     0.161945
      dxy     :     0.209260
      f0      :     0.014812  f :     0.111236
      f+1     :     0.008673
      f-1     :     0.013226
      f+2     :     0.024060
      f-2     :     0.006926
      f+3     :     0.025593
      f-3     :     0.017947
 12 C s       :     2.823108  s :     2.823108
      pz      :     1.050900  p :     3.170806
      px      :     1.055368
      py      :     1.064538
      dz2     :     0.021991  d :     0.219411
      dxz     :     0.060682
      dyz     :     0.050313
      dx2y2   :     0.024959
      dxy     :     0.061467
      f0      :     0.003556  f :     0.023395
      f+1     :     0.003347
      f-1     :     0.002432
      f+2     :     0.003252
      f-2     :     0.004511
      f+3     :     0.003200
      f-3     :     0.003097
 13 O s       :     3.390129  s :     3.390129
      pz      :     1.464510  p :     4.371341
      px      :     1.417134
      py      :     1.489698
      dz2     :     0.008369  d :     0.070144
      dxz     :     0.000885
      dyz     :     0.019396
      dx2y2   :     0.022524
      dxy     :     0.018969
      f0      :     0.000715  f :     0.006277
      f+1     :     0.000135
      f-1     :     0.001019
      f+2     :     0.001064
      f-2     :     0.000183
      f+3     :     0.001597
      f-3     :     0.001564
 14 C s       :     2.673531  s :     2.673531
      pz      :     0.894175  p :     2.721074
      px      :     0.953500
      py      :     0.873398
      dz2     :     0.109127  d :     0.498993
      dxz     :     0.107512
      dyz     :     0.077655
      dx2y2   :     0.105922
      dxy     :     0.098776
      f0      :     0.005811  f :     0.058921
      f+1     :     0.009123
      f-1     :     0.007178
      f+2     :     0.009366
      f-2     :     0.012677
      f+3     :     0.008584
      f-3     :     0.006182
 15 C s       :     2.712792  s :     2.712792
      pz      :     0.929815  p :     2.829300
      px      :     0.974312
      py      :     0.925172
      dz2     :     0.076327  d :     0.465593
      dxz     :     0.100388
      dyz     :     0.072852
      dx2y2   :     0.116158
      dxy     :     0.099867
      f0      :     0.005925  f :     0.051766
      f+1     :     0.006114
      f-1     :     0.006394
      f+2     :     0.009890
      f-2     :     0.007338
      f+3     :     0.007768
      f-3     :     0.008336
 16 C s       :     2.803904  s :     2.803904
      pz      :     0.843869  p :     2.843190
      px      :     1.145661
      py      :     0.853660
      dz2     :     0.040432  d :     0.419604
      dxz     :     0.123885
      dyz     :     0.007633
      dx2y2   :     0.119463
      dxy     :     0.128191
      f0      :     0.006863  f :     0.063015
      f+1     :     0.009387
      f-1     :     0.001533
      f+2     :     0.010378
      f-2     :     0.001531
      f+3     :     0.016116
      f-3     :     0.017207
 17 N s       :     3.298307  s :     3.298307
      pz      :     1.001660  p :     3.493245
      px      :     1.473808
      py      :     1.017778
      dz2     :     0.011450  d :     0.108327
      dxz     :     0.030340
      dyz     :     0.001109
      dx2y2   :     0.033854
      dxy     :     0.031574
      f0      :     0.001756  f :     0.016587
      f+1     :     0.002626
      f-1     :     0.000370
      f+2     :     0.002591
      f-2     :     0.000377
      f+3     :     0.004445
      f-3     :     0.004423
 18 C s       :     2.754397  s :     2.754397
      pz      :     0.819894  p :     2.656742
      px      :     1.020497
      py      :     0.816351
      dz2     :     0.132021  d :     0.775369
      dxz     :     0.164199
      dyz     :     0.119370
      dx2y2   :     0.205944
      dxy     :     0.153835
      f0      :     0.010598  f :     0.112643
      f+1     :     0.018385
      f-1     :     0.008928
      f+2     :     0.018965
      f-2     :     0.019792
      f+3     :     0.021193
      f-3     :     0.014782
 19 C s       :     2.821868  s :     2.821868
      pz      :     1.071015  p :     3.174373
      px      :     1.034648
      py      :     1.068710
      dz2     :     0.034679  d :     0.219284
      dxz     :     0.043450
      dyz     :     0.036635
      dx2y2   :     0.049248
      dxy     :     0.055273
      f0      :     0.002749  f :     0.023856
      f+1     :     0.003873
      f-1     :     0.001918
      f+2     :     0.003941
      f-2     :     0.001731
      f+3     :     0.005214
      f-3     :     0.004430
 20 O s       :     3.390163  s :     3.390163
      pz      :     1.399620  p :     4.378798
      px      :     1.568930
      py      :     1.410248
      dz2     :     0.010817  d :     0.069856
      dxz     :     0.017718
      dyz     :     0.011323
      dx2y2   :     0.016253
      dxy     :     0.013746
      f0      :     0.000536  f :     0.006242
      f+1     :     0.001016
      f-1     :     0.000434
      f+2     :     0.001135
      f-2     :     0.001399
      f+3     :     0.000908
      f-3     :     0.000814
 21 H s       :     0.772695  s :     0.772695
      pz      :     0.026929  p :     0.062820
      px      :     0.020725
      py      :     0.015167
 22 H s       :     0.789082  s :     0.789082
      pz      :     0.030982  p :     0.062873
      px      :     0.015306
      py      :     0.016585
 23 H s       :     0.793140  s :     0.793140
      pz      :     0.014921  p :     0.063447
      px      :     0.035117
      py      :     0.013409
 24 H s       :     0.794417  s :     0.794417
      pz      :     0.018139  p :     0.063301
      px      :     0.017493
      py      :     0.027669
 25 H s       :     0.773278  s :     0.773278
      pz      :     0.025406  p :     0.062858
      px      :     0.020848
      py      :     0.016603
 26 H s       :     0.789477  s :     0.789477
      pz      :     0.017195  p :     0.062775
      px      :     0.023533
      py      :     0.022047
 27 H s       :     0.785107  s :     0.785107
      pz      :     0.015419  p :     0.063151
      px      :     0.018865
      py      :     0.028866
 28 H s       :     0.792307  s :     0.792307
      pz      :     0.024817  p :     0.062495
      px      :     0.011730
      py      :     0.025948
 29 H s       :     0.786574  s :     0.786574
      pz      :     0.031867  p :     0.063040
      px      :     0.015330
      py      :     0.015843


                      *****************************
                      * MAYER POPULATION ANALYSIS *
                      *****************************

  NA   - Mulliken gross atomic population
  ZA   - Total nuclear charge
  QA   - Mulliken gross atomic charge
  VA   - Mayer's total valence
  BVA  - Mayer's bonded valence
  FA   - Mayer's free valence

  ATOM       NA         ZA         QA         VA         BVA        FA
  0 O      8.3026     8.0000    -0.3026     2.1445     2.1445    -0.0000
  1 C      5.8600     6.0000     0.1400     4.0135     4.0135    -0.0000
  2 C      6.3876     6.0000    -0.3876     3.7954     3.7954    -0.0000
  3 C      5.6377     6.0000     0.3623     3.5509     3.5509    -0.0000
  4 C      6.2096     6.0000    -0.2096     4.0281     4.0281    -0.0000
  5 N      7.0263     7.0000    -0.0263     3.0717     3.0717    -0.0000
  6 C      6.0638     6.0000    -0.0638     4.1755     4.1755    -0.0000
  7 C      6.2011     6.0000    -0.2011     4.2921     4.2921    -0.0000
  8 C      5.6289     6.0000     0.3711     3.5356     3.5356    -0.0000
  9 C      6.2032     6.0000    -0.2032     4.0217     4.0217    -0.0000
 10 N      7.0264     7.0000    -0.0264     3.0888     3.0888    -0.0000
 11 C      5.8534     6.0000     0.1466     4.0211     4.0211    -0.0000
 12 C      6.3933     6.0000    -0.3933     3.7930     3.7930    -0.0000
 13 O      8.3036     8.0000    -0.3036     2.1452     2.1452    -0.0000
 14 C      6.0173     6.0000    -0.0173     4.1115     4.1115    -0.0000
 15 C      5.7387     6.0000     0.2613     3.4859     3.4859    -0.0000
 16 C      6.1995     6.0000    -0.1995     4.0348     4.0348    -0.0000
 17 N      7.0295     7.0000    -0.0295     3.0906     3.0906    -0.0000
 18 C      5.7735     6.0000     0.2265     3.9989     3.9989    -0.0000
 19 C      6.4324     6.0000    -0.4324     3.8737     3.8737    -0.0000
 20 O      8.3225     8.0000    -0.3225     2.1448     2.1448    -0.0000
 21 H      0.8042     1.0000     0.1958     0.9603     0.9603    -0.0000
 22 H      0.8231     1.0000     0.1769     0.9766     0.9766    -0.0000
 23 H      0.8295     1.0000     0.1705     0.9652     0.9652    -0.0000
 24 H      0.8318     1.0000     0.1682     0.9664     0.9664    -0.0000
 25 H      0.8044     1.0000     0.1956     0.9604     0.9604    -0.0000
 26 H      0.8239     1.0000     0.1761     0.9767     0.9767    -0.0000
 27 H      0.8208     1.0000     0.1792     0.9518     0.9518    -0.0000
 28 H      0.8278     1.0000     0.1722     0.9837     0.9837    -0.0000
 29 H      0.8235     1.0000     0.1765     0.9518     0.9518    -0.0000

  Mayer bond orders larger than 0.100000
B(  0-O ,  1-C ) :   2.0849 B(  1-C ,  2-C ) :   1.0088 B(  1-C ,  3-C ) :   0.8231 
B(  2-C , 21-H ) :   0.9149 B(  2-C , 22-H ) :   0.9604 B(  2-C , 23-H ) :   0.9480 
B(  3-C ,  4-C ) :   1.0276 B(  3-C ,  6-C ) :   1.6325 B(  4-C ,  5-N ) :   2.9526 
B(  6-C ,  7-C ) :   1.2768 B(  6-C , 14-C ) :   1.1599 B(  7-C ,  8-C ) :   1.6283 
B(  7-C , 14-C ) :   1.2620 B(  8-C ,  9-C ) :   1.0108 B(  8-C , 11-C ) :   0.8246 
B(  9-C , 10-N ) :   2.9726 B( 11-C , 12-C ) :   1.0163 B( 11-C , 13-O ) :   2.0893 
B( 12-C , 24-H ) :   0.9471 B( 12-C , 25-H ) :   0.9163 B( 12-C , 26-H ) :   0.9607 
B( 14-C , 15-C ) :   1.5835 B( 15-C , 16-C ) :   0.9689 B( 15-C , 18-C ) :   0.8961 
B( 16-C , 17-N ) :   2.9850 B( 18-C , 19-C ) :   1.0487 B( 18-C , 20-O ) :   2.0603 
B( 19-C , 27-H ) :   0.9380 B( 19-C , 28-H ) :   0.9549 B( 19-C , 29-H ) :   0.9438 


-------
TIMINGS
-------

Total SCF time: 0 days 0 hours 28 min 18 sec 

Total time                  ....    1698.885 sec
Sum of individual times     ....    1696.689 sec  ( 99.9%)

Fock matrix formation       ....    1689.054 sec  ( 99.4%)
  XC integration            ....      13.263 sec  (  0.8% of F)
    Basis function eval.    ....       2.408 sec  ( 18.2% of XC)
    Density eval.           ....       3.986 sec  ( 30.1% of XC)
    XC-Functional eval.     ....       0.653 sec  (  4.9% of XC)
    XC-Potential eval.      ....       4.488 sec  ( 33.8% of XC)
Diagonalization             ....       0.446 sec  (  0.0%)
Density matrix formation    ....       0.080 sec  (  0.0%)
Population analysis         ....       0.290 sec  (  0.0%)
Initial guess               ....       0.525 sec  (  0.0%)
Orbital Transformation      ....       0.000 sec  (  0.0%)
Orbital Orthonormalization  ....       0.477 sec  (  0.0%)
DIIS solution               ....       0.114 sec  (  0.0%)
SOSCF solution              ....       2.724 sec  (  0.2%)
Grid generation             ....       3.456 sec  (  0.2%)


-------------------------------------------------------------------------------
                          DFT DISPERSION CORRECTION                            
                                                                               
                              DFTD3 V3.1  Rev 1                                
                              USING zero damping                               
-------------------------------------------------------------------------------
The omegaB97X-D3 functional is recognized. Fit by Chai et al.
Active option DFTDOPT                   ...         3   

molecular C6(AA) [au] = 13173.162091 


            DFT-D V3
 parameters
 s6 scaling factor         :     1.0000 
 rs6 scaling factor        :     1.2810 
 s8 scaling factor         :     1.0000 
 rs8 scaling factor        :     1.0940 
 Damping factor alpha6     :    14.0000 
 Damping factor alpha8     :    16.0000 
 ad hoc parameters k1-k3   :    16.0000     1.3333    -4.0000 

 Edisp/kcal,au: -10.707563893025  -0.017063587393 
 E6   /kcal   :  -4.579606468 
 E8   /kcal   :  -6.127957425 
 % E8         :  57.230173790 

-------------------------   ----------------
Dispersion correction           -0.017063587
-------------------------   ----------------


-------------------------   --------------------
FINAL SINGLE POINT ENERGY      -966.844243772746
-------------------------   --------------------

                                *** OPTIMIZATION RUN DONE ***

                            ***************************************
                            *     ORCA property calculations      *
                            ***************************************

                                    ---------------------
                                    Active property flags
                                    ---------------------
   (+) Dipole Moment


------------------------------------------------------------------------------
                       ORCA ELECTRIC PROPERTIES CALCULATION
------------------------------------------------------------------------------

Dipole Moment Calculation                       ... on
Quadrupole Moment Calculation                   ... off
Polarizability Calculation                      ... off
GBWName                                         ... TMCN3-CP.gbw
Electron density file                           ... TMCN3-CP.scfp
The origin for moment calculation is the CENTER OF MASS  = ( 9.830711,  1.159633 -1.560543)

-------------
DIPOLE MOMENT
-------------
                                X             Y             Z
Electronic contribution:      8.91719       1.99461      -3.54410
Nuclear contribution   :    -11.68191      -2.47232       4.47539
                        -----------------------------------------
Total Dipole Moment    :     -2.76472      -0.47770       0.93129
                        -----------------------------------------
Magnitude (a.u.)       :      2.95621
Magnitude (Debye)      :      7.51408



--------------------
Rotational spectrum 
--------------------
 
Rotational constants in cm-1:     0.011623     0.009639     0.005508 
Rotational constants in MHz :   348.444339   288.979455   165.131788 

 Dipole components along the rotational axes: 
x,y,z [a.u.] :    -2.236555    -1.931626     0.076230 
x,y,z [Debye]:    -5.684871    -4.909803     0.193762 

 
--------------------------------------------------------------------------
[[2808,1],1]: A high-performance Open MPI point-to-point messaging module
was unable to find any relevant network interfaces:

Module: OpenFabrics (openib)
  Host: compute-0-8

Another transport will be used instead, although this may result in
lower performance.

NOTE: You can disable this warning by setting the MCA parameter
btl_base_warn_component_unused to 0.
--------------------------------------------------------------------------
[compute-0-8.local:54888] 3 more processes have sent help message help-mpi-btl-base.txt / btl:no-nics
[compute-0-8.local:54888] Set MCA parameter "orte_base_help_aggregate" to 0 to see all help / error messages

Timings for individual modules:

Sum of individual times         ...    81729.604 sec (=1362.160 min)
GTO integral calculation        ...       37.891 sec (=   0.632 min)   0.0 %
SCF iterations                  ...    51785.434 sec (= 863.091 min)  63.4 %
SCF Gradient evaluation         ...    29900.000 sec (= 498.333 min)  36.6 %
Geometry relaxation             ...        6.279 sec (=   0.105 min)   0.0 %
                             ****ORCA TERMINATED NORMALLY****
TOTAL RUN TIME: 0 days 22 hours 42 minutes 16 seconds 751 msec
