Warning: no access to tty (Bad file descriptor).
Thus no job control in this shell.

                                 *****************
                                 * O   R   C   A *
                                 *****************

           --- An Ab Initio, DFT and Semiempirical electronic structure package ---

                  #######################################################
                  #                        -***-                        #
                  #          Department of theory and spectroscopy      #
                  #               Directorship: Frank Neese             #
                  #        Max Planck Institute fuer Kohlenforschung    #
                  #                Kaiser Wilhelm Platz 1               #
                  #                 D-45470 Muelheim/Ruhr               #
                  #                      Germany                        #
                  #                                                     #
                  #                  All rights reserved                #
                  #                        -***-                        #
                  #######################################################


                         Program Version 4.2.1 -  RELEASE  -


 With contributions from (in alphabetic order):
   Daniel Aravena         : Magnetic Suceptibility
   Michael Atanasov       : Ab Initio Ligand Field Theory (pilot matlab implementation)
   Alexander A. Auer      : GIAO ZORA, VPT2
   Ute Becker             : Parallelization
   Giovanni Bistoni       : ED, misc. LED, open-shell LED, HFLD
   Martin Brehm           : Molecular dynamics
   Dmytro Bykov           : SCF Hessian
   Vijay G. Chilkuri      : MRCI spin determinant printing, contributions to CSF-ICE
   Dipayan Datta          : RHF DLPNO-CCSD density
   Achintya Kumar Dutta   : EOM-CC, STEOM-CC
   Dmitry Ganyushin       : Spin-Orbit,Spin-Spin,Magnetic field MRCI
   Miquel Garcia          : C-PCM Hessian, Gaussian charge scheme
   Yang Guo               : DLPNO-NEVPT2, CIM, IAO-localization
   Andreas Hansen         : Spin unrestricted coupled pair/coupled cluster methods
   Benjamin Helmich-Paris : CASSCF linear response (MC-RPA)
   Lee Huntington         : MR-EOM, pCC
   Robert Izsak           : Overlap fitted RIJCOSX, COSX-SCS-MP3, EOM
   Christian Kollmar      : KDIIS, OOCD, Brueckner-CCSD(T), CCSD density
   Simone Kossmann        : Meta GGA functionals, TD-DFT gradient, OOMP2, MP2 Hessian
   Martin Krupicka        : AUTO-CI
   Lucas Lang             : DCDCAS
   Dagmar Lenk            : GEPOL surface, SMD
   Dimitrios Liakos       : Extrapolation schemes; Compound Job, initial MDCI parallelization
   Dimitrios Manganas     : Further ROCIS development; embedding schemes
   Dimitrios Pantazis     : SARC Basis sets
   Taras Petrenko         : DFT Hessian,TD-DFT gradient, ASA, ECA, R-Raman, ABS, FL, XAS/XES, NRVS
   Peter Pinski           : DLPNO-MP2, DLPNO-MP2 Gradient
   Christoph Reimann      : Effective Core Potentials
   Marius Retegan         : Local ZFS, SOC
   Christoph Riplinger    : Optimizer, TS searches, QM/MM, DLPNO-CCSD(T), (RO)-DLPNO pert. Triples
   Tobias Risthaus        : Range-separated hybrids, TD-DFT gradient, RPA, STAB
   Michael Roemelt        : Original ROCIS implementation
   Masaaki Saitow         : Open-shell DLPNO-CCSD energy and density
   Barbara Sandhoefer     : DKH picture change effects
   Avijit Sen             : IP-ROCIS
   Kantharuban Sivalingam : CASSCF convergence, NEVPT2, FIC-MRCI
   Bernardo de Souza      : ESD, SOC TD-DFT
   Georgi Stoychev        : AutoAux, RI-MP2 NMR
   Willem Van den Heuvel  : Paramagnetic NMR
   Boris Wezisla          : Elementary symmetry handling
   Frank Wennmohs         : Technical directorship


 We gratefully acknowledge several colleagues who have allowed us to
 interface, adapt or use parts of their codes:
   Stefan Grimme, W. Hujo, H. Kruse,             : VdW corrections, initial TS optimization,
                  C. Bannwarth                     DFT functionals, gCP, sTDA/sTD-DF
   Ed Valeev, F. Pavosevic, A. Kumar             : LibInt (2-el integral package), F12 methods
   Garnet Chan, S. Sharma, J. Yang, R. Olivares  : DMRG
   Ulf Ekstrom                                   : XCFun DFT Library
   Mihaly Kallay                                 : mrcc  (arbitrary order and MRCC methods)
   Andreas Klamt, Michael Diedenhofen            : otool_cosmo (COSMO solvation model)
   Jiri Pittner, Ondrej Demel                    : Mk-CCSD
   Frank Weinhold                                : gennbo (NPA and NBO analysis)
   Christopher J. Cramer and Donald G. Truhlar   : smd solvation model
   Lars Goerigk                                  : TD-DFT with DH, B97 family of functionals
   V. Asgeirsson, H. Jonsson                     : NEB implementation
   FAccTs GmbH                                   : IRC, NEB, NEB-TS, Multilevel, MM, QM/MM, CI optimization
   S Lehtola, MJT Oliveira, MAL Marques          : LibXC Library


 Your calculation uses the libint2 library for the computation of 2-el integrals
 For citations please refer to: http://libint.valeyev.net

 Your ORCA version has been built with support for libXC version: 4.2.3
 For citations please refer to: https://tddft.org/programs/libxc/

 This ORCA versions uses:
   CBLAS   interface :  Fast vector & matrix operations
   LAPACKE interface :  Fast linear algebra routines
   SCALAPACK package :  Parallel linear algebra routines


Your calculation utilizes the atom-pairwise dispersion correction
with the zero-damping scheme (D30)
Cite in your paper:
S.Grimme, J.Antony, S.Ehrlich and H.Krieg, J.Chem.Phys., 132, (2010), 154104 
   

XCFun DFT library Copyright 2009-2010 Ulf Ekstrom and contributors.
See http://admol.org/xcfun for more information. This is free soft-
ware; see the source code for copying conditions. There is ABSOLUTELY
NO WARRANTY; not even for MERCHANTABILITY or FITNESS FOR A PARTICULAR
PURPOSE. For details see the documentation. Scientific users of this 
library should cite U. Ekstrom, L. Visscher, R. Bast, A. J. Thorvald-
sen and K. Ruud; J.Chem.Theor.Comp. 2010, DOI: 10.1021/ct100117s
XCFun Version 0.99 
----- Orbital basis set information -----
Your calculation utilizes the basis: def2-TZVP
   F. Weigend and R. Ahlrichs, Phys. Chem. Chem. Phys. 7, 3297 (2005).

----- AuxJ basis set information -----
Your calculation utilizes the auxiliary basis: def2/J
   F. Weigend, Phys. Chem. Chem. Phys. 8, 1057 (2006).

================================================================================
                                        WARNINGS
                       Please study these warnings very carefully!
================================================================================


WARNING: Geometry Optimization
  ===> : Switching off AutoStart
         For restart on a previous wavefunction, please use MOREAD

INFO   : the flag for use of LIBINT has been found!

================================================================================
                                       INPUT FILE
================================================================================
NAME = DRBI.inp
|  1> # avogadro generated ORCA input file 
|  2> # Basic Mode
|  3> # 
|  4> ! wB97X-D3 OPT def2-TZVP def2/J CPCM
|  5> %cpcm
|  6>   epsilon 3
|  7> end
|  8> %pal
|  9>  nprocs 8
| 10> end 
| 11> 
| 12> * xyz 0 1
| 13>    C       -5.08056        4.63786        0.04878
| 14>    N       -3.63293        4.67308        0.04516
| 15>    C       -2.85070        5.83860        0.13619
| 16>    C       -3.27315        7.15640        0.32025
| 17>    C       -2.29159        8.16030        0.37174
| 18>    C       -0.92716        7.82964        0.23675
| 19>    C       -0.53310        6.49278        0.04845
| 20>    C       -1.53194        5.51273        0.00323
| 21>    N       -1.41163        4.11475       -0.18008
| 22>    C       -0.17824        3.39102       -0.42019
| 23>    C       -2.75039        3.52427       -0.13534
| 24>    C       -2.86465        2.49500        0.98525
| 25>    C       -2.24792        1.25285        0.83263
| 26>    C       -2.32872        0.27961        1.82918
| 27>    C       -3.03618        0.48718        3.05069
| 28>    N       -3.07987       -0.58427        4.06133
| 29>    C       -2.35306       -1.83026        3.72847
| 30>    C       -2.37658       -2.96564        4.76717
| 31>    C       -3.76530       -0.57598        5.37785
| 32>    C       -4.55586        0.62976        5.86152
| 33>    C       -3.65312        1.76229        3.17519
| 34>    C       -3.56942        2.73336        2.17117
| 35>    H       -5.46810        5.05320        1.00232
| 36>    H       -5.44370        3.59481       -0.06738
| 37>    H       -5.46955        5.24545       -0.79487
| 38>    H       -4.32199        7.40226        0.42118
| 39>    H       -2.58424        9.19236        0.51459
| 40>    H       -0.17850        8.61015        0.27682
| 41>    H        0.51461        6.25128       -0.05557
| 42>    H        0.69502        4.06966       -0.45796
| 43>    H       -0.24475        2.85731       -1.39101
| 44>    H        0.00316        2.66216        0.39451
| 45>    H       -2.99761        3.04653       -1.10896
| 46>    H       -1.70136        1.02452       -0.07413
| 47>    H       -1.81577       -0.64089        1.60128
| 48>    H       -2.78445       -2.25959        2.79768
| 49>    H       -1.27991       -1.58672        3.56718
| 50>    H       -3.41002       -3.32544        4.94982
| 51>    H       -1.90344       -2.65117        5.72013
| 52>    H       -1.79179       -3.82483        4.37542
| 53>    H       -3.00362       -0.74887        6.16748
| 54>    H       -4.49456       -1.41361        5.39252
| 55>    H       -3.89002        1.50630        6.00711
| 56>    H       -4.97884        0.39716        6.86245
| 57>    H       -5.42419        0.82576        5.19767
| 58>    H       -4.21428        2.09635        4.00738
| 59>    H       -4.05651        3.68150        2.34619
| 60> *
| 61> 
| 62> 
| 63>                          ****END OF INPUT****
================================================================================

                       *****************************
                       * Geometry Optimization Run *
                       *****************************

Geometry optimization settings:
Update method            Update   .... BFGS
Choice of coordinates    CoordSys .... Z-matrix Internals
Initial Hessian          InHess   .... Almoef's Model

Convergence Tolerances:
Energy Change            TolE     ....  5.0000e-06 Eh
Max. Gradient            TolMAXG  ....  3.0000e-04 Eh/bohr
RMS Gradient             TolRMSG  ....  1.0000e-04 Eh/bohr
Max. Displacement        TolMAXD  ....  4.0000e-03 bohr
RMS Displacement         TolRMSD  ....  2.0000e-03 bohr
Strict Convergence                ....  False
------------------------------------------------------------------------------
                        ORCA OPTIMIZATION COORDINATE SETUP
------------------------------------------------------------------------------

The optimization will be done in new redundant internal coordinates
Making redundant internal coordinates   ...  (new redundants) done
Evaluating the initial hessian          ...  (Almloef) done
Evaluating the coordinates              ...  done
Calculating the B-matrix                .... done
Calculating the G-matrix                .... done
Diagonalizing the G-matrix              .... done
Small eigenvalue found = 2.604e-03
Small eigenvalue found = 6.429e-03
Small eigenvalue found = 1.020e-02
Small eigenvalue found = 1.085e-02
Small eigenvalue found = 1.270e-02
Small eigenvalue found = 2.741e-02
The first mode is                       ....  121
The number of degrees of freedom        ....  135

    -----------------------------------------------------------------
                    Redundant Internal Coordinates


    -----------------------------------------------------------------
         Definition                    Initial Value    Approx d2E/dq
    -----------------------------------------------------------------
      1. B(N   1,C   0)                  1.4481         0.452106   
      2. B(C   2,N   1)                  1.4066         0.526434   
      3. B(C   3,C   2)                  1.3960         0.611077   
      4. B(C   4,C   3)                  1.4050         0.591375   
      5. B(C   5,C   4)                  1.4104         0.579685   
      6. B(C   6,C   5)                  1.4064         0.588286   
      7. B(C   7,C   2)                  1.3649         0.685105   
      8. B(C   7,C   6)                  1.4001         0.602083   
      9. B(N   8,C   7)                  1.4151         0.510360   
     10. B(C   9,N   8)                  1.4501         0.448792   
     11. B(C  10,N   8)                  1.4639         0.426583   
     12. B(C  10,N   1)                  1.4599         0.432914   
     13. B(C  11,C  10)                  1.5258         0.379334   
     14. B(C  12,C  11)                  1.3952         0.612972   
     15. B(C  13,C  12)                  1.3953         0.612770   
     16. B(C  14,C  13)                  1.4268         0.545852   
     17. B(N  15,C  14)                  1.4735         0.411718   
     18. B(C  16,N  15)                  1.4804         0.401487   
     19. B(C  17,C  16)                  1.5390         0.361418   
     20. B(C  18,N  15)                  1.4843         0.395773   
     21. B(C  19,C  18)                  1.5208         0.386464   
     22. B(C  20,C  14)                  1.4220         0.555546   
     23. B(C  21,C  20)                  1.3993         0.603812   
     24. B(C  21,C  11)                  1.4000         0.602321   
     25. B(H  22,C   0)                  1.1099         0.334684   
     26. B(H  23,C   0)                  1.1105         0.333918   
     27. B(H  24,C   0)                  1.1101         0.334522   
     28. B(H  25,C   3)                  1.0820         0.370856   
     29. B(H  26,C   4)                  1.0822         0.370542   
     30. B(H  27,C   5)                  1.0823         0.370482   
     31. B(H  28,C   6)                  1.0802         0.373296   
     32. B(H  29,C   9)                  1.1066         0.338797   
     33. B(H  30,C   9)                  1.1098         0.334779   
     34. B(H  31,C   9)                  1.1081         0.336938   
     35. B(H  32,C  10)                  1.1123         0.331733   
     36. B(H  33,C  12)                  1.0831         0.369363   
     37. B(H  34,C  13)                  1.0781         0.376142   
     38. B(H  35,C  16)                  1.1121         0.332006   
     39. B(H  36,C  16)                  1.1122         0.331904   
     40. B(H  37,C  17)                  1.1094         0.335303   
     41. B(H  38,C  17)                  1.1095         0.335264   
     42. B(H  39,C  17)                  1.1107         0.333732   
     43. B(H  40,C  18)                  1.1107         0.333782   
     44. B(H  41,C  18)                  1.1107         0.333729   
     45. B(H  42,C  19)                  1.1103         0.334170   
     46. B(H  43,C  19)                  1.1112         0.333059   
     47. B(H  44,C  19)                  1.1105         0.334033   
     48. B(H  45,C  20)                  1.0578         0.405251   
     49. B(H  46,C  21)                  1.0802         0.373284   
     50. A(H  23,C   0,H  24)          108.6631         0.284139   
     51. A(N   1,C   0,H  24)          109.5790         0.328652   
     52. A(H  22,C   0,H  24)          109.0110         0.284240   
     53. A(H  22,C   0,H  23)          109.0958         0.284160   
     54. A(N   1,C   0,H  23)          110.4553         0.328554   
     55. A(N   1,C   0,H  22)          110.0049         0.328678   
     56. A(C   0,N   1,C  10)          125.8399         0.380324   
     57. A(C   0,N   1,C   2)          125.1646         0.393510   
     58. A(C   2,N   1,C  10)          108.8964         0.390535   
     59. A(N   1,C   2,C   7)          109.4612         0.426325   
     60. A(N   1,C   2,C   3)          128.4919         0.417706   
     61. A(C   3,C   2,C   7)          122.0447         0.440797   
     62. A(C   2,C   3,C   4)          117.8988         0.429276   
     63. A(C   2,C   3,H  25)          121.3408         0.353802   
     64. A(C   4,C   3,H  25)          120.7605         0.351846   
     65. A(C   5,C   4,H  26)          119.8555         0.350610   
     66. A(C   3,C   4,H  26)          119.8238         0.351795   
     67. A(C   3,C   4,C   5)          120.3207         0.425238   
     68. A(C   4,C   5,H  27)          119.7744         0.350601   
     69. A(C   6,C   5,H  27)          119.7794         0.351474   
     70. A(C   4,C   5,C   6)          120.4461         0.424840   
     71. A(C   7,C   6,H  28)          122.1643         0.353307   
     72. A(C   5,C   6,H  28)          119.8132         0.351924   
     73. A(C   5,C   6,C   7)          118.0226         0.427734   
     74. A(C   6,C   7,N   8)          129.4252         0.414314   
     75. A(C   2,C   7,N   8)          109.3069         0.423966   
     76. A(C   2,C   7,C   6)          121.2667         0.439619   
     77. A(C   7,N   8,C   9)          125.9331         0.390878   
     78. A(C   9,N   8,C  10)          125.5642         0.378871   
     79. A(C   7,N   8,C  10)          108.4684         0.387430   
     80. A(H  29,C   9,H  31)          107.4150         0.285100   
     81. A(H  30,C   9,H  31)          109.6716         0.284571   
     82. A(H  29,C   9,H  30)          108.2007         0.284814   
     83. A(N   8,C   9,H  31)          110.2299         0.328643   
     84. A(N   8,C   9,H  30)          109.5045         0.328295   
     85. A(N   8,C   9,H  29)          111.7644         0.328942   
     86. A(N   8,C  10,H  32)          110.4719         0.325073   
     87. A(N   1,C  10,H  32)          108.1703         0.325861   
     88. A(C  11,C  10,H  32)          109.6615         0.320790   
     89. A(N   8,C  10,C  11)          111.2860         0.370362   
     90. A(N   1,C  10,C  11)          113.2508         0.371302   
     91. A(N   1,C  10,N   8)          103.8406         0.376518   
     92. A(C  10,C  11,C  21)          123.0225         0.395736   
     93. A(C  10,C  11,C  12)          119.1518         0.396956   
     94. A(C  12,C  11,C  21)          117.8252         0.430931   
     95. A(C  11,C  12,H  33)          120.1546         0.353746   
     96. A(C  13,C  12,H  33)          118.6935         0.353727   
     97. A(C  11,C  12,C  13)          121.1496         0.432264   
     98. A(C  14,C  13,H  34)          122.7583         0.347951   
     99. A(C  12,C  13,H  34)          114.6457         0.354819   
    100. A(C  12,C  13,C  14)          122.5959         0.423371   
    101. A(N  15,C  14,C  20)          125.3883         0.393287   
    102. A(C  13,C  14,C  20)          114.8689         0.416033   
    103. A(C  13,C  14,N  15)          119.7428         0.392077   
    104. A(C  16,N  15,C  18)          115.5218         0.366899   
    105. A(C  14,N  15,C  18)          128.1680         0.368487   
    106. A(C  14,N  15,C  16)          116.3101         0.369395   
    107. A(C  17,C  16,H  35)          105.9111         0.318308   
    108. A(N  15,C  16,H  35)          108.8243         0.321899   
    109. A(N  15,C  16,C  17)          117.4950         0.363505   
    110. A(H  35,C  16,H  36)          109.7212         0.283539   
    111. A(C  17,C  16,H  36)          105.9123         0.318293   
    112. A(N  15,C  16,H  36)          108.7857         0.321882   
    113. A(H  38,C  17,H  39)          107.3184         0.284212   
    114. A(H  37,C  17,H  39)          107.3159         0.284217   
    115. A(C  16,C  17,H  39)          108.9406         0.318578   
    116. A(H  37,C  17,H  38)          110.3508         0.284420   
    117. A(C  16,C  17,H  38)          111.3516         0.318816   
    118. A(C  16,C  17,H  37)          111.3835         0.318822   
    119. A(N  15,C  18,C  19)          121.7748         0.366797   
    120. A(H  40,C  18,H  41)          108.8741         0.284016   
    121. A(C  19,C  18,H  41)          104.6200         0.322085   
    122. A(N  15,C  18,H  41)          108.1016         0.321416   
    123. A(C  19,C  18,H  40)          104.7029         0.322094   
    124. A(N  15,C  18,H  40)          108.2423         0.321425   
    125. A(H  43,C  19,H  44)          106.1274         0.283960   
    126. A(H  42,C  19,H  44)          114.0772         0.284107   
    127. A(C  18,C  19,H  44)          110.8735         0.322133   
    128. A(H  42,C  19,H  43)          105.9852         0.283978   
    129. A(C  18,C  19,H  43)          108.5653         0.321979   
    130. A(C  18,C  19,H  42)          110.8467         0.322155   
    131. A(C  21,C  20,H  45)          112.1504         0.358442   
    132. A(C  14,C  20,H  45)          125.6058         0.353409   
    133. A(C  14,C  20,C  21)          122.2436         0.423589   
    134. A(C  20,C  21,H  46)          117.7681         0.353477   
    135. A(C  11,C  21,H  46)          120.9103         0.353329   
    136. A(C  11,C  21,C  20)          121.3166         0.429767   
    137. D(C   2,N   1,C   0,H  24)     58.4978         0.017439   
    138. D(C  10,N   1,C   0,H  24)   -117.4755         0.017439   
    139. D(C  10,N   1,C   0,H  22)    122.6945         0.017439   
    140. D(C   2,N   1,C   0,H  23)    178.1782         0.017439   
    141. D(C  10,N   1,C   0,H  23)      2.2049         0.017439   
    142. D(C   2,N   1,C   0,H  22)    -61.3322         0.017439   
    143. D(C   7,C   2,N   1,C   0)   -175.5300         0.021995   
    144. D(C   3,C   2,N   1,C   0)      3.9380         0.021995   
    145. D(C   7,C   2,N   1,C  10)      1.0205         0.021995   
    146. D(C   3,C   2,N   1,C  10)   -179.5114         0.021995   
    147. D(H  25,C   3,C   2,N   1)      0.3912         0.025795   
    148. D(C   4,C   3,C   2,C   7)     -0.2347         0.025795   
    149. D(C   4,C   3,C   2,N   1)   -179.6430         0.025795   
    150. D(H  25,C   3,C   2,C   7)    179.7995         0.025795   
    151. D(C   5,C   4,C   3,C   2)      0.1464         0.024073   
    152. D(H  26,C   4,C   3,H  25)      0.0447         0.024073   
    153. D(C   5,C   4,C   3,H  25)   -179.8876         0.024073   
    154. D(H  26,C   4,C   3,C   2)   -179.9214         0.024073   
    155. D(C   6,C   5,C   4,H  26)   -179.8965         0.023086   
    156. D(H  27,C   5,C   4,C   3)    179.9411         0.023086   
    157. D(C   6,C   5,C   4,C   3)      0.0357         0.023086   
    158. D(H  27,C   5,C   4,H  26)      0.0089         0.023086   
    159. D(C   7,C   6,C   5,H  27)    179.9588         0.023809   
    160. D(H  28,C   6,C   5,C   4)    179.8876         0.023809   
    161. D(H  28,C   6,C   5,H  27)     -0.0178         0.023809   
    162. D(C   7,C   6,C   5,C   4)     -0.1358         0.023809   
    163. D(N   8,C   7,C   2,C   3)   -179.5044         0.032941   
    164. D(N   8,C   7,C   2,N   1)      0.0044         0.032941   
    165. D(C   6,C   7,C   2,C   3)      0.1370         0.032941   
    166. D(C   2,C   7,C   6,C   5)      0.0523         0.025000   
    167. D(C   6,C   7,C   2,N   1)    179.6458         0.032941   
    168. D(N   8,C   7,C   6,H  28)     -0.4098         0.025000   
    169. D(N   8,C   7,C   6,C   5)    179.6142         0.025000   
    170. D(C   2,C   7,C   6,H  28)   -179.9717         0.025000   
    171. D(C  10,N   8,C   7,C   6)    179.3745         0.020621   
    172. D(C  10,N   8,C   7,C   2)     -1.0223         0.020621   
    173. D(C   9,N   8,C   7,C   6)     -2.6644         0.020621   
    174. D(C   9,N   8,C   7,C   2)    176.9388         0.020621   
    175. D(H  31,C   9,N   8,C  10)    -63.6160         0.017181   
    176. D(H  31,C   9,N   8,C   7)    118.7616         0.017181   
    177. D(H  30,C   9,N   8,C  10)     57.1234         0.017181   
    178. D(H  30,C   9,N   8,C   7)   -120.4991         0.017181   
    179. D(H  29,C   9,N   8,C  10)    177.0052         0.017181   
    180. D(H  29,C   9,N   8,C   7)     -0.6172         0.017181   
    181. D(H  32,C  10,N   8,C   9)    -60.6379         0.015515   
    182. D(C  11,C  10,N   8,C   9)     61.4276         0.015515   
    183. D(C  11,C  10,N   8,C   7)   -120.6019         0.015515   
    184. D(N   1,C  10,N   8,C   9)   -176.4103         0.015515   
    185. D(N   1,C  10,N   8,C   7)      1.5602         0.015515   
    186. D(H  32,C  10,N   1,C   2)   -118.9499         0.015979   
    187. D(H  32,C  10,N   1,C   0)     57.5715         0.015979   
    188. D(C  11,C  10,N   1,C   2)    119.2849         0.015979   
    189. D(C  11,C  10,N   1,C   0)    -64.1937         0.015979   
    190. D(H  32,C  10,N   8,C   7)    117.3326         0.015515   
    191. D(N   8,C  10,N   1,C   0)    174.9569         0.015979   
    192. D(N   8,C  10,N   1,C   2)     -1.5645         0.015979   
    193. D(C  21,C  11,C  10,H  32)   -131.1286         0.010740   
    194. D(C  21,C  11,C  10,N   8)    106.3376         0.010740   
    195. D(C  21,C  11,C  10,N   1)    -10.2025         0.010740   
    196. D(C  12,C  11,C  10,H  32)     48.6084         0.010740   
    197. D(C  12,C  11,C  10,N   8)    -73.9254         0.010740   
    198. D(C  12,C  11,C  10,N   1)    169.5345         0.010740   
    199. D(C  13,C  12,C  11,C  10)   -179.8254         0.025965   
    200. D(H  33,C  12,C  11,C  21)    179.3732         0.025965   
    201. D(H  33,C  12,C  11,C  10)     -0.3774         0.025965   
    202. D(C  13,C  12,C  11,C  21)     -0.0747         0.025965   
    203. D(H  34,C  13,C  12,H  33)      0.4424         0.025946   
    204. D(H  34,C  13,C  12,C  11)    179.8982         0.025946   
    205. D(C  14,C  13,C  12,H  33)   -179.4550         0.025946   
    206. D(C  14,C  13,C  12,C  11)      0.0008         0.025946   
    207. D(C  20,C  14,C  13,H  34)   -179.8861         0.020372   
    208. D(C  20,C  14,C  13,C  12)      0.0030         0.020372   
    209. D(N  15,C  14,C  13,H  34)      0.1693         0.020372   
    210. D(N  15,C  14,C  13,C  12)   -179.9417         0.020372   
    211. D(C  18,N  15,C  14,C  20)      0.7479         0.013369   
    212. D(C  18,N  15,C  14,C  13)   -179.3137         0.013369   
    213. D(C  16,N  15,C  14,C  20)   -179.3705         0.013369   
    214. D(C  16,N  15,C  14,C  13)      0.5679         0.013369   
    215. D(H  36,C  16,N  15,C  18)   -120.5484         0.013760   
    216. D(H  36,C  16,N  15,C  14)     59.5548         0.013760   
    217. D(H  35,C  16,N  15,C  18)    119.9446         0.013760   
    218. D(H  35,C  16,N  15,C  14)    -59.9522         0.013760   
    219. D(C  17,C  16,N  15,C  18)     -0.3165         0.013760   
    220. D(C  17,C  16,N  15,C  14)    179.7866         0.013760   
    221. D(H  39,C  17,C  16,H  36)    -58.2408         0.010474   
    222. D(H  39,C  17,C  16,H  35)     58.2553         0.010474   
    223. D(H  39,C  17,C  16,N  15)   -179.9681         0.010474   
    224. D(H  38,C  17,C  16,H  36)     59.9278         0.010474   
    225. D(H  38,C  17,C  16,H  35)    176.4239         0.010474   
    226. D(H  38,C  17,C  16,N  15)    -61.7995         0.010474   
    227. D(H  37,C  17,C  16,H  36)   -176.4254         0.010474   
    228. D(H  37,C  17,C  16,H  35)    -59.9293         0.010474   
    229. D(H  37,C  17,C  16,N  15)     61.8473         0.010474   
    230. D(H  41,C  18,N  15,C  16)    -58.8826         0.013380   
    231. D(H  41,C  18,N  15,C  14)    120.9998         0.013380   
    232. D(H  40,C  18,N  15,C  16)     58.8979         0.013380   
    233. D(H  40,C  18,N  15,C  14)   -121.2197         0.013380   
    234. D(C  19,C  18,N  15,C  16)   -179.8695         0.013380   
    235. D(C  19,C  18,N  15,C  14)      0.0129         0.013380   
    236. D(H  44,C  19,C  18,H  41)    -59.2445         0.011884   
    237. D(H  44,C  19,C  18,N  15)     63.3907         0.011884   
    238. D(H  43,C  19,C  18,H  41)     56.9666         0.011884   
    239. D(H  43,C  19,C  18,H  40)    -57.4948         0.011884   
    240. D(H  43,C  19,C  18,N  15)    179.6018         0.011884   
    241. D(H  42,C  19,C  18,H  41)    172.9910         0.011884   
    242. D(H  44,C  19,C  18,H  40)   -173.7059         0.011884   
    243. D(H  42,C  19,C  18,H  40)     58.5296         0.011884   
    244. D(H  42,C  19,C  18,N  15)    -64.3739         0.011884   
    245. D(H  45,C  20,C  14,N  15)      0.1917         0.021128   
    246. D(H  45,C  20,C  14,C  13)   -179.7493         0.021128   
    247. D(C  21,C  20,C  14,N  15)   -179.9887         0.021128   
    248. D(C  21,C  20,C  14,C  13)      0.0703         0.021128   
    249. D(H  46,C  21,C  20,H  45)      0.4996         0.025151   
    250. D(H  46,C  21,C  20,C  14)   -179.3421         0.025151   
    251. D(C  11,C  21,C  20,H  45)    179.6916         0.025151   
    252. D(C  11,C  21,C  20,C  14)     -0.1501         0.025151   
    253. D(H  46,C  21,C  11,C  12)    179.3143         0.025020   
    254. D(H  46,C  21,C  11,C  10)     -0.9455         0.025020   
    255. D(C  20,C  21,C  11,C  12)      0.1476         0.025020   
    256. D(C  20,C  21,C  11,C  10)    179.8878         0.025020   
    -----------------------------------------------------------------

Number of atoms                         .... 47
Number of degrees of freedom            .... 256

         *************************************************************
         *                GEOMETRY OPTIMIZATION CYCLE   1            *
         *************************************************************
---------------------------------
CARTESIAN COORDINATES (ANGSTROEM)
---------------------------------
  C     -5.080560    4.637860    0.048780
  N     -3.632930    4.673080    0.045160
  C     -2.850700    5.838600    0.136190
  C     -3.273150    7.156400    0.320250
  C     -2.291590    8.160300    0.371740
  C     -0.927160    7.829640    0.236750
  C     -0.533100    6.492780    0.048450
  C     -1.531940    5.512730    0.003230
  N     -1.411630    4.114750   -0.180080
  C     -0.178240    3.391020   -0.420190
  C     -2.750390    3.524270   -0.135340
  C     -2.864650    2.495000    0.985250
  C     -2.247920    1.252850    0.832630
  C     -2.328720    0.279610    1.829180
  C     -3.036180    0.487180    3.050690
  N     -3.079870   -0.584270    4.061330
  C     -2.353060   -1.830260    3.728470
  C     -2.376580   -2.965640    4.767170
  C     -3.765300   -0.575980    5.377850
  C     -4.555860    0.629760    5.861520
  C     -3.653120    1.762290    3.175190
  C     -3.569420    2.733360    2.171170
  H     -5.468100    5.053200    1.002320
  H     -5.443700    3.594810   -0.067380
  H     -5.469550    5.245450   -0.794870
  H     -4.321990    7.402260    0.421180
  H     -2.584240    9.192360    0.514590
  H     -0.178500    8.610150    0.276820
  H      0.514610    6.251280   -0.055570
  H      0.695020    4.069660   -0.457960
  H     -0.244750    2.857310   -1.391010
  H      0.003160    2.662160    0.394510
  H     -2.997610    3.046530   -1.108960
  H     -1.701360    1.024520   -0.074130
  H     -1.815770   -0.640890    1.601280
  H     -2.784450   -2.259590    2.797680
  H     -1.279910   -1.586720    3.567180
  H     -3.410020   -3.325440    4.949820
  H     -1.903440   -2.651170    5.720130
  H     -1.791790   -3.824830    4.375420
  H     -3.003620   -0.748870    6.167480
  H     -4.494560   -1.413610    5.392520
  H     -3.890020    1.506300    6.007110
  H     -4.978840    0.397160    6.862450
  H     -5.424190    0.825760    5.197670
  H     -4.214280    2.096350    4.007380
  H     -4.056510    3.681500    2.346190

----------------------------
CARTESIAN COORDINATES (A.U.)
----------------------------
  NO LB      ZA    FRAG     MASS         X           Y           Z
   0 C     6.0000    0    12.011   -9.600867    8.764285    0.092181
   1 N     7.0000    0    14.007   -6.865243    8.830841    0.085340
   2 C     6.0000    0    12.011   -5.387042   11.033355    0.257362
   3 C     6.0000    0    12.011   -6.185357   13.523636    0.605185
   4 C     6.0000    0    12.011   -4.330478   15.420732    0.702487
   5 C     6.0000    0    12.011   -1.752078   14.795875    0.447393
   6 C     6.0000    0    12.011   -1.007413   12.269576    0.091557
   7 C     6.0000    0    12.011   -2.894947   10.417550    0.006104
   8 N     7.0000    0    14.007   -2.667594    7.775751   -0.340302
   9 C     6.0000    0    12.011   -0.336825    6.408099   -0.794044
  10 C     6.0000    0    12.011   -5.197484    6.659905   -0.255756
  11 C     6.0000    0    12.011   -5.413404    4.714867    1.861853
  12 C     6.0000    0    12.011   -4.247953    2.367543    1.573443
  13 C     6.0000    0    12.011   -4.400643    0.528386    3.456649
  14 C     6.0000    0    12.011   -5.737549    0.920637    5.764969
  15 N     7.0000    0    14.007   -5.820111   -1.104110    7.674801
  16 C     6.0000    0    12.011   -4.446639   -3.458690    7.045787
  17 C     6.0000    0    12.011   -4.491085   -5.604247    9.008646
  18 C     6.0000    0    12.011   -7.115386   -1.088444   10.162664
  19 C     6.0000    0    12.011   -8.609328    1.190074   11.076668
  20 C     6.0000    0    12.011   -6.903396    3.330245    6.000240
  21 C     6.0000    0    12.011   -6.745226    5.165302    4.102917
  22 H     1.0000    0     1.008  -10.333211    9.549164    1.894110
  23 H     1.0000    0     1.008  -10.287102    6.793206   -0.127330
  24 H     1.0000    0     1.008  -10.335952    9.912464   -1.502087
  25 H     1.0000    0     1.008   -8.167377   13.988244    0.795915
  26 H     1.0000    0     1.008   -4.883506   17.371043    0.972434
  27 H     1.0000    0     1.008   -0.337316   16.270825    0.523114
  28 H     1.0000    0     1.008    0.972472   11.813207   -0.105012
  29 H     1.0000    0     1.008    1.313397    7.690543   -0.865419
  30 H     1.0000    0     1.008   -0.462510    5.399533   -2.628628
  31 H     1.0000    0     1.008    0.005972    5.030753    0.745516
  32 H     1.0000    0     1.008   -5.664662    5.757107   -2.095631
  33 H     1.0000    0     1.008   -3.215104    1.936062   -0.140085
  34 H     1.0000    0     1.008   -3.431308   -1.211107    3.025981
  35 H     1.0000    0     1.008   -5.261848   -4.270006    5.286849
  36 H     1.0000    0     1.008   -2.418679   -2.998466    6.740993
  37 H     1.0000    0     1.008   -6.444004   -6.284171    9.353804
  38 H     1.0000    0     1.008   -3.596980   -5.009985   10.809479
  39 H     1.0000    0     1.008   -3.385992   -7.227881    8.268346
  40 H     1.0000    0     1.008   -5.676019   -1.415159   11.654848
  41 H     1.0000    0     1.008   -8.493487   -2.671336   10.190386
  42 H     1.0000    0     1.008   -7.351072    2.846494   11.351793
  43 H     1.0000    0     1.008   -9.408644    0.750524   12.968151
  44 H     1.0000    0     1.008  -10.250234    1.560460    9.822173
  45 H     1.0000    0     1.008   -7.963835    3.961527    7.572851
  46 H     1.0000    0     1.008   -7.665693    6.957027    4.433657

--------------------------------
INTERNAL COORDINATES (ANGSTROEM)
--------------------------------
 C      0   0   0     0.000000000000     0.00000000     0.00000000
 N      1   0   0     1.448062902536     0.00000000     0.00000000
 C      2   1   0     1.406629696900   125.16460203     0.00000000
 C      3   2   1     1.396044027279   128.49185836     3.93803639
 C      4   3   2     1.404964933263   117.89875819   180.35704138
 C      5   4   3     1.410399787507   120.32065872     0.14638610
 C      6   5   4     1.406390711431   120.44612717     0.03567727
 C      3   2   1     1.364916684673   109.46124510   184.46999926
 N      8   3   2     1.415070716466   109.30689711     0.00000000
 C      9   8   3     1.450065107883   125.93310385   176.93877905
 C      2   1   3     1.459870377020   125.83985820   184.02669417
 C     11   2   1     1.525835518200   113.25082586   295.80633255
 C     12  11   2     1.395200838518   119.15182528   169.53450998
 C     13  12  11     1.395290880103   121.14963681   180.17464862
 C     14  13  12     1.426769650855   122.59591807     0.00000000
 N     15  14  13     1.473535587694   119.74282443   180.05832609
 C     16  15  14     1.480384962028   116.31009560     0.56785810
 C     17  16  15     1.539005726045   117.49501990   179.78661676
 C     16  15  14     1.484287007085   128.16800994   180.68625871
 C     19  16  15     1.520766494272   121.77483540     0.00000000
 C     15  14  13     1.421977751479   114.86889647     0.00000000
 C     21  15  14     1.399299394447   122.24357043     0.07027103
 H      1   2   3     1.109924816733   110.00490485   298.66778580
 H      1   2   3     1.110548111385   110.45528786   178.17821529
 H      1   2   3     1.110055922330   109.57900487    58.49777104
 H      4   3   2     1.081988609044   121.34077814     0.39122599
 H      5   4   3     1.082219011384   119.82379959   180.07862909
 H      6   5   4     1.082263027457   119.77443571   179.94109157
 H      7   6   5     1.080203061697   119.81315258   179.88756880
 H     10   9   8     1.106599227408   111.76443027   359.38277319
 H     10   9   8     1.109847474476   109.50454448   239.50094607
 H     10   9   8     1.108096994671   110.22992830   118.76158496
 H     11   2   1     1.112334994685   108.17027605    57.57145770
 H     13  12  11     1.083086386259   120.15459333   359.62255619
 H     14  13  12     1.078135595600   114.64570194   179.89819315
 H     17  16  15     1.112111327656   108.82433969   300.04776355
 H     17  16  15     1.112194730342   108.78573358    59.55477587
 H     18  17  16     1.109421153620   111.38349928    61.84733630
 H     18  17  16     1.109452839061   111.35163821   298.20053318
 H     18  17  16     1.110700167777   108.94061225   180.03193052
 H     19  16  15     1.110658773611   108.24232141   238.78028981
 H     19  16  15     1.110702198341   108.10163272   120.99980867
 H     20  19  16     1.110343066489   110.84670428   295.62611752
 H     20  19  16     1.111249614308   108.56530791   179.60175203
 H     20  19  16     1.110454776837   110.87345721    63.39065122
 H     21  15  14     1.057845369277   125.60583780   180.25066173
 H     22  21  15     1.080212075520   117.76808833   180.65792461

---------------------------
INTERNAL COORDINATES (A.U.)
---------------------------
 C      0   0   0     0.000000000000     0.00000000     0.00000000
 N      1   0   0     2.736442310483     0.00000000     0.00000000
 C      2   1   0     2.658144898981   125.16460203     0.00000000
 C      3   2   1     2.638140882453   128.49185836     3.93803639
 C      4   3   2     2.654998951631   117.89875819   180.35704138
 C      5   4   3     2.665269337729   120.32065872     0.14638610
 C      6   5   4     2.657693281896   120.44612717     0.03567727
 C      3   2   1     2.579318729653   109.46124510   184.46999926
 N      8   3   2     2.674096114253   109.30689711     0.00000000
 C      9   8   3     2.740225930254   125.93310385   176.93877905
 C      2   1   3     2.758755203592   125.83985820   184.02669417
 C     11   2   1     2.883411254807   113.25082586   295.80633255
 C     12  11   2     2.636547486615   119.15182528   169.53450998
 C     13  12  11     2.636717640554   121.14963681   180.17464862
 C     14  13  12     2.696203896306   122.59591807     0.00000000
 N     15  14  13     2.784578709328   119.74282443   180.05832609
 C     16  15  14     2.797522151009   116.31009560     0.56785810
 C     17  16  15     2.908299340762   117.49501990   179.78661676
 C     16  15  14     2.804895947527   128.16800994   180.68625871
 C     19  16  15     2.873832187817   121.77483540     0.00000000
 C     15  14  13     2.687148518824   114.86889647     0.00000000
 C     21  15  14     2.644292634867   122.24357043     0.07027103
 H      1   2   3     2.097453932868   110.00490485   298.66778580
 H      1   2   3     2.098631789060   110.45528786   178.17821529
 H      1   2   3     2.097701686541   109.57900487    58.49777104
 H      4   3   2     2.044662151115   121.34077814     0.39122599
 H      5   4   3     2.045097548438   119.82379959   180.07862909
 H      6   5   4     2.045180726762   119.77443571   179.94109157
 H      7   6   5     2.041287955631   119.81315258   179.88756880
 H     10   9   8     2.091169479810   111.76443027   359.38277319
 H     10   9   8     2.097307777183   109.50454448   239.50094607
 H     10   9   8     2.093999849750   110.22992830   118.76158496
 H     11   2   1     2.102008509131   108.17027605    57.57145770
 H     13  12  11     2.046736649408   120.15459333   359.62255619
 H     14  13  12     2.037381010916   114.64570194   179.89819315
 H     17  16  15     2.101585839701   108.82433969   300.04776355
 H     17  16  15     2.101743447936   108.78573358    59.55477587
 H     18  17  16     2.096502147521   111.38349928    61.84733630
 H     18  17  16     2.096562024326   111.35163821   298.20053318
 H     18  17  16     2.098919133999   108.94061225   180.03193052
 H     19  16  15     2.098840910362   108.24232141   238.78028981
 H     19  16  15     2.098922971209   108.10163272   120.99980867
 H     20  19  16     2.098244310362   110.84670428   295.62611752
 H     20  19  16     2.099957437468   108.56530791   179.60175203
 H     20  19  16     2.098455412326   110.87345721    63.39065122
 H     21  15  14     1.999038039970   125.60583780   180.25066173
 H     22  21  15     2.041304989288   117.76808833   180.65792461

---------------------
BASIS SET INFORMATION
---------------------
There are 3 groups of distinct atoms

 Group   1 Type C   : 11s6p2d1f contracted to 5s3p2d1f pattern {62111/411/11/1}
 Group   2 Type N   : 11s6p2d1f contracted to 5s3p2d1f pattern {62111/411/11/1}
 Group   3 Type H   : 5s1p contracted to 3s1p pattern {311/1}

Atom   0C    basis set group =>   1
Atom   1N    basis set group =>   2
Atom   2C    basis set group =>   1
Atom   3C    basis set group =>   1
Atom   4C    basis set group =>   1
Atom   5C    basis set group =>   1
Atom   6C    basis set group =>   1
Atom   7C    basis set group =>   1
Atom   8N    basis set group =>   2
Atom   9C    basis set group =>   1
Atom  10C    basis set group =>   1
Atom  11C    basis set group =>   1
Atom  12C    basis set group =>   1
Atom  13C    basis set group =>   1
Atom  14C    basis set group =>   1
Atom  15N    basis set group =>   2
Atom  16C    basis set group =>   1
Atom  17C    basis set group =>   1
Atom  18C    basis set group =>   1
Atom  19C    basis set group =>   1
Atom  20C    basis set group =>   1
Atom  21C    basis set group =>   1
Atom  22H    basis set group =>   3
Atom  23H    basis set group =>   3
Atom  24H    basis set group =>   3
Atom  25H    basis set group =>   3
Atom  26H    basis set group =>   3
Atom  27H    basis set group =>   3
Atom  28H    basis set group =>   3
Atom  29H    basis set group =>   3
Atom  30H    basis set group =>   3
Atom  31H    basis set group =>   3
Atom  32H    basis set group =>   3
Atom  33H    basis set group =>   3
Atom  34H    basis set group =>   3
Atom  35H    basis set group =>   3
Atom  36H    basis set group =>   3
Atom  37H    basis set group =>   3
Atom  38H    basis set group =>   3
Atom  39H    basis set group =>   3
Atom  40H    basis set group =>   3
Atom  41H    basis set group =>   3
Atom  42H    basis set group =>   3
Atom  43H    basis set group =>   3
Atom  44H    basis set group =>   3
Atom  45H    basis set group =>   3
Atom  46H    basis set group =>   3
---------------------------------
AUXILIARY/J BASIS SET INFORMATION
---------------------------------
There are 3 groups of distinct atoms

 Group   1 Type C   : 12s5p4d2f1g contracted to 6s4p3d1f1g pattern {711111/2111/211/2/1}
 Group   2 Type N   : 12s5p4d2f1g contracted to 6s4p3d1f1g pattern {711111/2111/211/2/1}
 Group   3 Type H   : 5s2p1d contracted to 3s1p1d pattern {311/2/1}

Atom   0C    basis set group =>   1
Atom   1N    basis set group =>   2
Atom   2C    basis set group =>   1
Atom   3C    basis set group =>   1
Atom   4C    basis set group =>   1
Atom   5C    basis set group =>   1
Atom   6C    basis set group =>   1
Atom   7C    basis set group =>   1
Atom   8N    basis set group =>   2
Atom   9C    basis set group =>   1
Atom  10C    basis set group =>   1
Atom  11C    basis set group =>   1
Atom  12C    basis set group =>   1
Atom  13C    basis set group =>   1
Atom  14C    basis set group =>   1
Atom  15N    basis set group =>   2
Atom  16C    basis set group =>   1
Atom  17C    basis set group =>   1
Atom  18C    basis set group =>   1
Atom  19C    basis set group =>   1
Atom  20C    basis set group =>   1
Atom  21C    basis set group =>   1
Atom  22H    basis set group =>   3
Atom  23H    basis set group =>   3
Atom  24H    basis set group =>   3
Atom  25H    basis set group =>   3
Atom  26H    basis set group =>   3
Atom  27H    basis set group =>   3
Atom  28H    basis set group =>   3
Atom  29H    basis set group =>   3
Atom  30H    basis set group =>   3
Atom  31H    basis set group =>   3
Atom  32H    basis set group =>   3
Atom  33H    basis set group =>   3
Atom  34H    basis set group =>   3
Atom  35H    basis set group =>   3
Atom  36H    basis set group =>   3
Atom  37H    basis set group =>   3
Atom  38H    basis set group =>   3
Atom  39H    basis set group =>   3
Atom  40H    basis set group =>   3
Atom  41H    basis set group =>   3
Atom  42H    basis set group =>   3
Atom  43H    basis set group =>   3
Atom  44H    basis set group =>   3
Atom  45H    basis set group =>   3
Atom  46H    basis set group =>   3
--------------------------------------------------------------------------
[[1501,1],1]: A high-performance Open MPI point-to-point messaging module
was unable to find any relevant network interfaces:

Module: OpenFabrics (openib)
  Host: compute-1-5

Another transport will be used instead, although this may result in
lower performance.

NOTE: You can disable this warning by setting the MCA parameter
btl_base_warn_component_unused to 0.
--------------------------------------------------------------------------


           ************************************************************
           *        Program running with 8 parallel MPI-processes     *
           *              working on a common directory               *
           ************************************************************
------------------------------------------------------------------------------
                           ORCA GTO INTEGRAL CALCULATION
------------------------------------------------------------------------------

                         BASIS SET STATISTICS AND STARTUP INFO

 # of primitive gaussian shells          ...  590
 # of primitive gaussian functions       ... 1212
 # of contracted shells                  ...  342
 # of contracted basis functions         ...  832
 Highest angular momentum                ...    3
 Maximum contraction depth               ...    6
 Integral package used                   ... LIBINT
 Integral threshhold            Thresh   ...  2.500e-11
 Primitive cut-off              TCut     ...  2.500e-12


------------------------------ INTEGRAL EVALUATION ----------------------------


 * One electron integrals 
 Pre-screening matrix                    ... done
 Shell pair data                         ... done (   0.020 sec)

[compute-1-5.local:58377] 7 more processes have sent help message help-mpi-btl-base.txt / btl:no-nics
[compute-1-5.local:58377] Set MCA parameter "orte_base_help_aggregate" to 0 to see all help / error messages
--------------------------------------------------------------------------
[[1532,1],1]: A high-performance Open MPI point-to-point messaging module
was unable to find any relevant network interfaces:

Module: OpenFabrics (openib)
  Host: compute-1-5

Another transport will be used instead, although this may result in
lower performance.

NOTE: You can disable this warning by setting the MCA parameter
btl_base_warn_component_unused to 0.
--------------------------------------------------------------------------


           ************************************************************
           *        Program running with 8 parallel MPI-processes     *
           *              working on a common directory               *
           ************************************************************
-------------------------------------------------------------------------------
                                 ORCA SCF
-------------------------------------------------------------------------------

------------
SCF SETTINGS
------------
Hamiltonian:
 Density Functional     Method          .... DFT(GTOs)
 Exchange Functional    Exchange        .... WB97X-D3
 Correlation Functional Correlation     .... WB97X-D3
 Gradients option       PostSCFGGA      .... off
 Hybrid DFT is turned on
   Fraction HF Exchange ScalHFX         ....  0.195728
   Scaling of DF-GGA-X  ScalDFX         ....  0.000000
   Scaling of DF-GGA-C  ScalDFC         ....  1.000000
   Scaling of DF-LDA-C  ScalLDAC        ....  1.000000
   Perturbative correction              ....  0.000000
   Density functional embedding theory  .... OFF
 Long-range corrected/Screened/Range-Separated Hybrid DFT is turned on
   Amount of maximum screened exact exchange              ....  0.804272
   Range separation parameter mu (erf(mu*r12)/r12)        ....  0.250000


General Settings:
 Integral files         IntName         .... DRBI
 Hartree-Fock type      HFTyp           .... RHF
 Total Charge           Charge          ....    0
 Multiplicity           Mult            ....    1
 Number of Electrons    NEL             ....  160
 Basis Dimension        Dim             ....  832
 Nuclear Repulsion      ENuc            ....   1749.0160579028 Eh

Convergence Acceleration:
 DIIS                   CNVDIIS         .... on
   Start iteration      DIISMaxIt       ....    12
   Startup error        DIISStart       ....  0.200000
   # of expansion vecs  DIISMaxEq       ....     5
   Bias factor          DIISBfac        ....   1.050
   Max. coefficient     DIISMaxC        ....  10.000
 Newton-Raphson         CNVNR           .... off
 SOSCF                  CNVSOSCF        .... on
   Start iteration      SOSCFMaxIt      ....   150
   Startup grad/error   SOSCFStart      ....  0.003300
 Level Shifting         CNVShift        .... on
   Level shift para.    LevelShift      ....    0.2500
   Turn off err/grad.   ShiftErr        ....    0.0010
 Zerner damping         CNVZerner       .... off
 Static damping         CNVDamp         .... on
   Fraction old density DampFac         ....    0.7000
   Max. Damping (<1)    DampMax         ....    0.9800
   Min. Damping (>=0)   DampMin         ....    0.0000
   Turn off err/grad.   DampErr         ....    0.1000
 Fernandez-Rico         CNVRico         .... off

SCF Procedure:
 Maximum # iterations   MaxIter         ....   125
 SCF integral mode      SCFMode         .... Direct
   Integral package                     .... LIBINT
 Reset frequency        DirectResetFreq ....    20
 Integral Threshold     Thresh          ....  2.500e-11 Eh
 Primitive CutOff       TCut            ....  2.500e-12 Eh

Convergence Tolerance:
 Convergence Check Mode ConvCheckMode   .... Total+1el-Energy
 Convergence forced     ConvForced      .... 0
 Energy Change          TolE            ....  1.000e-08 Eh
 1-El. energy change                    ....  1.000e-05 Eh
 Orbital Gradient       TolG            ....  1.000e-05
 Orbital Rotation angle TolX            ....  1.000e-05
 DIIS Error             TolErr          ....  5.000e-07


Diagonalization of the overlap matrix:
Smallest eigenvalue                        ... 5.846e-06
Time for diagonalization                   ...    0.359 sec
Threshold for overlap eigenvalues          ... 1.000e-08
Number of eigenvalues below threshold      ... 0
Time for construction of square roots      ...    0.144 sec
Total time needed                          ...    0.506 sec

-------------------
DFT GRID GENERATION
-------------------

General Integration Accuracy     IntAcc      ...  4.340
Radial Grid Type                 RadialGrid  ... Gauss-Chebyshev
Angular Grid (max. acc.)         AngularGrid ... Lebedev-110
Angular grid pruning method      GridPruning ... 3 (G Style)
Weight generation scheme         WeightScheme... Becke
Basis function cutoff            BFCut       ...    1.0000e-11
Integration weight cutoff        WCut        ...    1.0000e-14
Grids for H and He will be reduced by one unit

# of grid points (after initial pruning)     ...  56420 (   0.0 sec)
# of grid points (after weights+screening)   ...  49958 (   0.2 sec)
nearest neighbour list constructed           ...    0.0 sec
Grid point re-assignment to atoms done       ...    0.0 sec
Grid point division into batches done        ...    0.1 sec
Reduced shell lists constructed in    0.3 sec

Total number of grid points                  ...    49958
Total number of batches                      ...      803
Average number of points per batch           ...       62
Average number of grid points per atom       ...     1063
Average number of shells per batch           ...   160.06 (46.80%)
Average number of basis functions per batch  ...   397.90 (47.82%)
Average number of large shells per batch     ...   110.77 (69.21%)
Average number of large basis fcns per batch ...   279.89 (70.34%)
Maximum spatial batch extension              ...   7.95,  7.67, 13.44 au
Average spatial batch extension              ...   0.23,  0.24,  0.31 au

Time for grid setup =    0.553 sec

------------------------------
INITIAL GUESS: MODEL POTENTIAL
------------------------------
Loading Hartree-Fock densities                     ... done
Calculating cut-offs                               ... done
Setting up the integral package                    ... done
Initializing the effective Hamiltonian             ... done
Starting the Coulomb interaction                   ... done (   0.6 sec)
Reading the grid                                   ... done
Mapping shells                                     ... done
Starting the XC term evaluation                    ... done (   0.6 sec)
  promolecular density results
     # of electrons  =    159.968114941
     EX              =   -124.174732939
     EC              =     -5.334183538
     EX+EC           =   -129.508916477
Transforming the Hamiltonian                       ... done (   0.2 sec)
Diagonalizing the Hamiltonian                      ... done (   0.3 sec)
Back transforming the eigenvectors                 ... done (   0.1 sec)
Now organizing SCF variables                       ... done
                      ------------------
                      INITIAL GUESS DONE (   2.6 sec)
                      ------------------

--------------------
CPCM SOLVATION MODEL
--------------------
CPCM parameters:
  Epsilon                                         ...       3.0000
  Refrac                                          ...       1.3300
  Rsolv                                           ...       1.3000
  Surface type                                    ...    GEPOL SES
  Epsilon function type                           ...         CPCM
Radii:
 Radius for C  used is    3.7795 Bohr (=   2.0000 Ang.)
 Radius for N  used is    3.4582 Bohr (=   1.8300 Ang.)
 Radius for H  used is    2.4566 Bohr (=   1.3000 Ang.)
Calculating surface                               ...        done! (  0.2s)
GEPOL surface points                              ...         1464
GEPOL Volume                                      ...    2566.6760
GEPOL Surface-area                                ...    1260.5169
Calculating surface distance matrix               ...        done! (  0.0s)
Performing Cholesky decomposition & store         ...        done! (  0.1s)
Overall time for CPCM initialization              ...                 0.3s
--------------
SCF ITERATIONS
--------------
ITER       Energy         Delta-E        Max-DP      RMS-DP      [F,P]     Damp
               ***  Starting incremental Fock matrix formation  ***
[compute-1-5.local:58408] 7 more processes have sent help message help-mpi-btl-base.txt / btl:no-nics
[compute-1-5.local:58408] Set MCA parameter "orte_base_help_aggregate" to 0 to see all help / error messages
  0   -902.8547746777   0.000000000000 0.03656584  0.00052079  0.1669083 0.7000
  1   -903.0406438622  -0.185869184461 0.02801965  0.00042952  0.1001023 0.7000
                               ***Turning on DIIS***
  2   -903.1419712747  -0.101327412462 0.06492624  0.00097964  0.0517806 0.0000
  3   -903.3107613946  -0.168790119945 0.01770618  0.00023115  0.0366495 0.0000
  4   -903.3323295330  -0.021568138352 0.00773906  0.00009106  0.0055328 0.0000
                      *** Initiating the SOSCF procedure ***
                           *** Shutting down DIIS ***
                      *** Re-Reading the Fockian *** 
                      *** Removing any level shift *** 
ITER      Energy       Delta-E        Grad      Rot      Max-DP    RMS-DP
  5   -903.33295954  -0.0006300043  0.001261  0.001261  0.002696  0.000038
               *** Restarting incremental Fock matrix formation ***
  6   -903.33305904  -0.0000994984  0.001003  0.003129  0.001779  0.000026
  7   -903.33309600  -0.0000369666  0.000383  0.002806  0.002101  0.000022
  8   -903.33310460  -0.0000086006  0.000255  0.000439  0.000475  0.000007
  9   -903.33310696  -0.0000023578  0.000061  0.000170  0.000191  0.000003
 10   -903.33310710  -0.0000001369  0.000023  0.000099  0.000097  0.000001
 11   -903.33310715  -0.0000000570  0.000011  0.000070  0.000043  0.000000
 12   -903.33310715   0.0000000034  0.000005  0.000018  0.000009  0.000000
                  ***Gradient check signals convergence***
              ***Rediagonalizing the Fockian in SOSCF/NRSCF***

               *****************************************************
               *                     SUCCESS                       *
               *           SCF CONVERGED AFTER  13 CYCLES          *
               *****************************************************

Setting up the final grid:

General Integration Accuracy     IntAcc      ...  4.670
Radial Grid Type                 RadialGrid  ... Gauss-Chebyshev
Angular Grid (max. acc.)         AngularGrid ... Lebedev-302
Angular grid pruning method      GridPruning ... 3 (G Style)
Weight generation scheme         WeightScheme... Becke
Basis function cutoff            BFCut       ...    1.0000e-11
Integration weight cutoff        WCut        ...    1.0000e-14
Grids for H and He will be reduced by one unit

# of grid points (after initial pruning)     ... 221514 (   0.0 sec)
# of grid points (after weights+screening)   ... 191798 (   0.9 sec)
nearest neighbour list constructed           ...    0.0 sec
Grid point re-assignment to atoms done       ...    0.1 sec
Grid point division into batches done        ...    0.8 sec
Reduced shell lists constructed in    1.5 sec

Total number of grid points                  ...   191798
Total number of batches                      ...     3024
Average number of points per batch           ...       63
Average number of grid points per atom       ...     4081
Average number of shells per batch           ...   149.76 (43.79%)
Average number of basis functions per batch  ...   371.56 (44.66%)
Average number of large shells per batch     ...   102.99 (68.77%)
Average number of large basis fcns per batch ...   257.87 (69.40%)
Maximum spatial batch extension              ...   8.53, 10.06, 20.93 au
Average spatial batch extension              ...   0.16,  0.17,  0.20 au

Final grid set up in    2.6 sec
Final integration                            ... done (   2.6 sec)
Change in XC energy                          ...     0.004049363
Integrated number of electrons               ...   160.000081260
Previous integrated no of electrons          ...   159.989012713

----------------
TOTAL SCF ENERGY
----------------

Total Energy       :         -903.32905778 Eh          -24580.83333 eV

Components:
Nuclear Repulsion  :         1749.01605790 Eh           47593.14652 eV
Electronic Energy  :        -2652.34511569 Eh          -72173.97985 eV
One Electron Energy:        -4697.00841436 Eh         -127812.09680 eV
Two Electron Energy:         2044.66329868 Eh           55638.11694 eV
CPCM Dielectric    :           -0.01070218 Eh              -0.29122 eV

Virial components:
Potential Energy   :        -1801.43194999 Eh          -49019.45546 eV
Kinetic Energy     :          898.10289220 Eh           24438.62213 eV
Virial Ratio       :            2.00581912


DFT components:
N(Alpha)           :       80.000040630182 electrons
N(Beta)            :       80.000040630182 electrons
N(Total)           :      160.000081260363 electrons
E(XC)              :      -91.079065702454 Eh       
DFET-embed. en.    :        0.000000000000 Eh       
CPCM Solvation Model Properties:
Surface-charge          :           -0.04504302
Charge-correction       :           -0.00014280 Eh              -0.00389 eV
Free-energy (cav+disp)  :            0.00590993 Eh               0.16082 eV
Corrected G(solv)       :         -903.32329066 Eh          -24580.67640 eV

---------------
SCF CONVERGENCE
---------------

  Last Energy change         ...    4.9696e-09  Tolerance :   1.0000e-08
  Last MAX-Density change    ...    1.3218e-05  Tolerance :   1.0000e-07
  Last RMS-Density change    ...    2.1623e-07  Tolerance :   5.0000e-09
  Last Orbital Gradient      ...    1.2402e-06  Tolerance :   1.0000e-05
  Last Orbital Rotation      ...    4.2521e-06  Tolerance :   1.0000e-05

             **** THE GBW FILE WAS UPDATED (DRBI.gbw) ****
             **** DENSITY FILE WAS UPDATED (DRBI.scfp) ****
             **** ENERGY FILE WAS UPDATED (DRBI.en.tmp) ****
             **** THE GBW FILE WAS UPDATED (DRBI.gbw) ****
             **** DENSITY FILE WAS UPDATED (DRBI.scfp) ****
----------------
ORBITAL ENERGIES
----------------

  NO   OCC          E(Eh)            E(eV) 
   0   2.0000     -14.434675      -392.7875 
   1   2.0000     -14.431054      -392.6889 
   2   2.0000     -14.429524      -392.6473 
   3   2.0000     -10.349391      -281.6212 
   4   2.0000     -10.334784      -281.2238 
   5   2.0000     -10.308856      -280.5182 
   6   2.0000     -10.307519      -280.4818 
   7   2.0000     -10.306307      -280.4489 
   8   2.0000     -10.305542      -280.4280 
   9   2.0000     -10.305128      -280.4168 
  10   2.0000     -10.302463      -280.3443 
  11   2.0000     -10.276292      -279.6321 
  12   2.0000     -10.275600      -279.6133 
  13   2.0000     -10.272696      -279.5343 
  14   2.0000     -10.272687      -279.5340 
  15   2.0000     -10.271429      -279.4998 
  16   2.0000     -10.271369      -279.4982 
  17   2.0000     -10.269722      -279.4534 
  18   2.0000     -10.266912      -279.3769 
  19   2.0000     -10.266486      -279.3653 
  20   2.0000     -10.263826      -279.2929 
  21   2.0000     -10.262800      -279.2650 
  22   2.0000      -1.106495       -30.1093 
  23   2.0000      -1.036132       -28.1946 
  24   2.0000      -1.009962       -27.4825 
  25   2.0000      -0.968469       -26.3534 
  26   2.0000      -0.951558       -25.8932 
  27   2.0000      -0.883202       -24.0332 
  28   2.0000      -0.881444       -23.9853 
  29   2.0000      -0.864067       -23.5125 
  30   2.0000      -0.857639       -23.3375 
  31   2.0000      -0.848930       -23.1006 
  32   2.0000      -0.845223       -22.9997 
  33   2.0000      -0.814566       -22.1655 
  34   2.0000      -0.778789       -21.1919 
  35   2.0000      -0.750135       -20.4122 
  36   2.0000      -0.743160       -20.2224 
  37   2.0000      -0.711729       -19.3671 
  38   2.0000      -0.706744       -19.2315 
  39   2.0000      -0.690665       -18.7940 
  40   2.0000      -0.684238       -18.6191 
  41   2.0000      -0.667464       -18.1626 
  42   2.0000      -0.614029       -16.7086 
  43   2.0000      -0.611222       -16.6322 
  44   2.0000      -0.596682       -16.2366 
  45   2.0000      -0.591017       -16.0824 
  46   2.0000      -0.583275       -15.8717 
  47   2.0000      -0.580136       -15.7863 
  48   2.0000      -0.571246       -15.5444 
  49   2.0000      -0.549541       -14.9538 
  50   2.0000      -0.543022       -14.7764 
  51   2.0000      -0.538282       -14.6474 
  52   2.0000      -0.534125       -14.5343 
  53   2.0000      -0.531113       -14.4523 
  54   2.0000      -0.530396       -14.4328 
  55   2.0000      -0.521846       -14.2001 
  56   2.0000      -0.518659       -14.1134 
  57   2.0000      -0.509052       -13.8520 
  58   2.0000      -0.501493       -13.6463 
  59   2.0000      -0.490082       -13.3358 
  60   2.0000      -0.482404       -13.1269 
  61   2.0000      -0.479987       -13.0611 
  62   2.0000      -0.475634       -12.9427 
  63   2.0000      -0.473036       -12.8720 
  64   2.0000      -0.468780       -12.7561 
  65   2.0000      -0.456179       -12.4133 
  66   2.0000      -0.454084       -12.3563 
  67   2.0000      -0.449817       -12.2401 
  68   2.0000      -0.446619       -12.1531 
  69   2.0000      -0.441816       -12.0224 
  70   2.0000      -0.433013       -11.7829 
  71   2.0000      -0.431551       -11.7431 
  72   2.0000      -0.413276       -11.2458 
  73   2.0000      -0.377293       -10.2667 
  74   2.0000      -0.374620       -10.1939 
  75   2.0000      -0.366818        -9.9816 
  76   2.0000      -0.337679        -9.1887 
  77   2.0000      -0.302120        -8.2211 
  78   2.0000      -0.269400        -7.3307 
  79   2.0000      -0.241680        -6.5765 
  80   0.0000       0.062077         1.6892 
  81   0.0000       0.072094         1.9618 
  82   0.0000       0.078993         2.1495 
  83   0.0000       0.094392         2.5685 
  84   0.0000       0.108123         2.9422 
  85   0.0000       0.117929         3.2090 
  86   0.0000       0.128096         3.4857 
  87   0.0000       0.135184         3.6785 
  88   0.0000       0.143218         3.8972 
  89   0.0000       0.149778         4.0757 
  90   0.0000       0.154911         4.2153 
  91   0.0000       0.164302         4.4709 
  92   0.0000       0.166656         4.5349 
  93   0.0000       0.170060         4.6276 
  94   0.0000       0.172120         4.6836 
  95   0.0000       0.180044         4.8992 
  96   0.0000       0.181834         4.9480 
  97   0.0000       0.183593         4.9958 
  98   0.0000       0.189454         5.1553 
  99   0.0000       0.191564         5.2127 
 100   0.0000       0.196274         5.3409 
 101   0.0000       0.201802         5.4913 
 102   0.0000       0.205043         5.5795 
 103   0.0000       0.205572         5.5939 
 104   0.0000       0.208581         5.6758 
 105   0.0000       0.211081         5.7438 
 106   0.0000       0.215202         5.8559 
 107   0.0000       0.224152         6.0995 
 108   0.0000       0.229647         6.2490 
 109   0.0000       0.236125         6.4253 
 110   0.0000       0.238993         6.5033 
 111   0.0000       0.242586         6.6011 
 112   0.0000       0.248970         6.7748 
 113   0.0000       0.249327         6.7845 
 114   0.0000       0.256361         6.9759 
 115   0.0000       0.260700         7.0940 
 116   0.0000       0.266470         7.2510 
 117   0.0000       0.268669         7.3109 
 118   0.0000       0.272857         7.4248 
 119   0.0000       0.277217         7.5435 
 120   0.0000       0.284263         7.7352 
 121   0.0000       0.288339         7.8461 
 122   0.0000       0.292909         7.9705 
 123   0.0000       0.295645         8.0449 
 124   0.0000       0.298590         8.1251 
 125   0.0000       0.301870         8.2143 
 126   0.0000       0.306544         8.3415 
 127   0.0000       0.308468         8.3938 
 128   0.0000       0.310410         8.4467 
 129   0.0000       0.316768         8.6197 
 130   0.0000       0.322137         8.7658 
 131   0.0000       0.325672         8.8620 
 132   0.0000       0.329592         8.9687 
 133   0.0000       0.339376         9.2349 
 134   0.0000       0.342330         9.3153 
 135   0.0000       0.344775         9.3818 
 136   0.0000       0.351552         9.5662 
 137   0.0000       0.353795         9.6273 
 138   0.0000       0.354632         9.6500 
 139   0.0000       0.360847         9.8191 
 140   0.0000       0.365362         9.9420 
 141   0.0000       0.366803         9.9812 
 142   0.0000       0.371886        10.1195 
 143   0.0000       0.375558        10.2194 
 144   0.0000       0.383074        10.4240 
 145   0.0000       0.386729        10.5234 
 146   0.0000       0.390784        10.6338 
 147   0.0000       0.399053        10.8588 
 148   0.0000       0.408234        11.1086 
 149   0.0000       0.409147        11.1335 
 150   0.0000       0.416860        11.3433 
 151   0.0000       0.421113        11.4591 
 152   0.0000       0.424292        11.5456 
 153   0.0000       0.430952        11.7268 
 154   0.0000       0.434778        11.8309 
 155   0.0000       0.440228        11.9792 
 156   0.0000       0.441855        12.0235 
 157   0.0000       0.445470        12.1219 
 158   0.0000       0.448455        12.2031 
 159   0.0000       0.453366        12.3367 
 160   0.0000       0.456684        12.4270 
 161   0.0000       0.466281        12.6881 
 162   0.0000       0.468112        12.7380 
 163   0.0000       0.472614        12.8605 
 164   0.0000       0.479473        13.0471 
 165   0.0000       0.482033        13.1168 
 166   0.0000       0.485823        13.2199 
 167   0.0000       0.488927        13.3044 
 168   0.0000       0.493435        13.4271 
 169   0.0000       0.498614        13.5680 
 170   0.0000       0.504208        13.7202 
 171   0.0000       0.508041        13.8245 
 172   0.0000       0.509859        13.8740 
 173   0.0000       0.510817        13.9000 
 174   0.0000       0.516997        14.0682 
 175   0.0000       0.518019        14.0960 
 176   0.0000       0.519751        14.1431 
 177   0.0000       0.524262        14.2659 
 178   0.0000       0.529551        14.4098 
 179   0.0000       0.530901        14.4466 
 180   0.0000       0.534213        14.5367 
 181   0.0000       0.536138        14.5890 
 182   0.0000       0.541339        14.7306 
 183   0.0000       0.544499        14.8166 
 184   0.0000       0.548288        14.9197 
 185   0.0000       0.551031        14.9943 
 186   0.0000       0.553936        15.0734 
 187   0.0000       0.557473        15.1696 
 188   0.0000       0.560498        15.2519 
 189   0.0000       0.560594        15.2545 
 190   0.0000       0.570189        15.5156 
 191   0.0000       0.575272        15.6540 
 192   0.0000       0.576752        15.6942 
 193   0.0000       0.579119        15.7586 
 194   0.0000       0.581980        15.8365 
 195   0.0000       0.590394        16.0654 
 196   0.0000       0.592729        16.1290 
 197   0.0000       0.596625        16.2350 
 198   0.0000       0.602557        16.3964 
 199   0.0000       0.604136        16.4394 
 200   0.0000       0.611513        16.6401 
 201   0.0000       0.613523        16.6948 
 202   0.0000       0.617423        16.8009 
 203   0.0000       0.620825        16.8935 
 204   0.0000       0.623673        16.9710 
 205   0.0000       0.630355        17.1528 
 206   0.0000       0.632032        17.1985 
 207   0.0000       0.641137        17.4462 
 208   0.0000       0.647183        17.6107 
 209   0.0000       0.648693        17.6518 
 210   0.0000       0.653710        17.7884 
 211   0.0000       0.666096        18.1254 
 212   0.0000       0.670730        18.2515 
 213   0.0000       0.672528        18.3004 
 214   0.0000       0.696915        18.9640 
 215   0.0000       0.701904        19.0998 
 216   0.0000       0.706725        19.2310 
 217   0.0000       0.711293        19.3553 
 218   0.0000       0.719741        19.5851 
 219   0.0000       0.722373        19.6568 
 220   0.0000       0.725799        19.7500 
 221   0.0000       0.732494        19.9322 
 222   0.0000       0.738642        20.0995 
 223   0.0000       0.741467        20.1763 
 224   0.0000       0.742882        20.2148 
 225   0.0000       0.750119        20.4118 
 226   0.0000       0.756959        20.5979 
 227   0.0000       0.762392        20.7458 
 228   0.0000       0.769469        20.9383 
 229   0.0000       0.777673        21.1615 
 230   0.0000       0.780591        21.2410 
 231   0.0000       0.790987        21.5238 
 232   0.0000       0.796268        21.6675 
 233   0.0000       0.799214        21.7477 
 234   0.0000       0.801602        21.8127 
 235   0.0000       0.810191        22.0464 
 236   0.0000       0.811600        22.0848 
 237   0.0000       0.819192        22.2913 
 238   0.0000       0.825695        22.4683 
 239   0.0000       0.827932        22.5292 
 240   0.0000       0.837580        22.7917 
 241   0.0000       0.842123        22.9153 
 242   0.0000       0.851094        23.1595 
 243   0.0000       0.858554        23.3624 
 244   0.0000       0.863846        23.5064 
 245   0.0000       0.869954        23.6726 
 246   0.0000       0.872682        23.7469 
 247   0.0000       0.882975        24.0270 
 248   0.0000       0.886474        24.1222 
 249   0.0000       0.898938        24.4614 
 250   0.0000       0.905522        24.6405 
 251   0.0000       0.912449        24.8290 
 252   0.0000       0.914418        24.8826 
 253   0.0000       0.923976        25.1427 
 254   0.0000       0.925033        25.1714 
 255   0.0000       0.937327        25.5060 
 256   0.0000       0.944342        25.6968 
 257   0.0000       0.948313        25.8049 
 258   0.0000       0.949414        25.8349 
 259   0.0000       0.965508        26.2728 
 260   0.0000       0.969540        26.3825 
 261   0.0000       0.972194        26.4548 
 262   0.0000       0.975907        26.5558 
 263   0.0000       0.982850        26.7447 
 264   0.0000       0.991499        26.9801 
 265   0.0000       0.999760        27.2049 
 266   0.0000       1.005441        27.3594 
 267   0.0000       1.008810        27.4511 
 268   0.0000       1.016404        27.6578 
 269   0.0000       1.026978        27.9455 
 270   0.0000       1.040724        28.3196 
 271   0.0000       1.041977        28.3536 
 272   0.0000       1.047317        28.4989 
 273   0.0000       1.050443        28.5840 
 274   0.0000       1.060709        28.8634 
 275   0.0000       1.072396        29.1814 
 276   0.0000       1.082353        29.4523 
 277   0.0000       1.090870        29.6841 
 278   0.0000       1.094904        29.7939 
 279   0.0000       1.105032        30.0695 
 280   0.0000       1.118866        30.4459 
 281   0.0000       1.123943        30.5840 
 282   0.0000       1.131853        30.7993 
 283   0.0000       1.136832        30.9348 
 284   0.0000       1.146782        31.2055 
 285   0.0000       1.150763        31.3139 
 286   0.0000       1.157141        31.4874 
 287   0.0000       1.166506        31.7422 
 288   0.0000       1.168448        31.7951 
 289   0.0000       1.176202        32.0061 
 290   0.0000       1.178654        32.0728 
 291   0.0000       1.183233        32.1974 
 292   0.0000       1.192593        32.4521 
 293   0.0000       1.193286        32.4710 
 294   0.0000       1.202921        32.7331 
 295   0.0000       1.204167        32.7670 
 296   0.0000       1.216278        33.0966 
 297   0.0000       1.225221        33.3399 
 298   0.0000       1.240773        33.7632 
 299   0.0000       1.245363        33.8881 
 300   0.0000       1.251231        34.0477 
 301   0.0000       1.254297        34.1312 
 302   0.0000       1.266553        34.4647 
 303   0.0000       1.275684        34.7131 
 304   0.0000       1.282045        34.8862 
 305   0.0000       1.294430        35.2232 
 306   0.0000       1.298482        35.3335 
 307   0.0000       1.311543        35.6889 
 308   0.0000       1.322559        35.9887 
 309   0.0000       1.328991        36.1637 
 310   0.0000       1.331788        36.2398 
 311   0.0000       1.339493        36.4495 
 312   0.0000       1.349565        36.7235 
 313   0.0000       1.355549        36.8864 
 314   0.0000       1.358214        36.9589 
 315   0.0000       1.360998        37.0346 
 316   0.0000       1.369187        37.2575 
 317   0.0000       1.379732        37.5444 
 318   0.0000       1.387350        37.7517 
 319   0.0000       1.398030        38.0423 
 320   0.0000       1.404597        38.2210 
 321   0.0000       1.413263        38.4569 
 322   0.0000       1.427576        38.8463 
 323   0.0000       1.443989        39.2929 
 324   0.0000       1.451199        39.4891 
 325   0.0000       1.463637        39.8276 
 326   0.0000       1.471203        40.0335 
 327   0.0000       1.482235        40.3337 
 328   0.0000       1.488595        40.5067 
 329   0.0000       1.494768        40.6747 
 330   0.0000       1.500248        40.8238 
 331   0.0000       1.515541        41.2400 
 332   0.0000       1.519996        41.3612 
 333   0.0000       1.530016        41.6339 
 334   0.0000       1.541468        41.9455 
 335   0.0000       1.547380        42.1064 
 336   0.0000       1.556890        42.3651 
 337   0.0000       1.559005        42.4227 
 338   0.0000       1.562782        42.5254 
 339   0.0000       1.570933        42.7473 
 340   0.0000       1.578591        42.9556 
 341   0.0000       1.584156        43.1071 
 342   0.0000       1.590947        43.2919 
 343   0.0000       1.593125        43.3511 
 344   0.0000       1.601918        43.5904 
 345   0.0000       1.608552        43.7709 
 346   0.0000       1.624155        44.1955 
 347   0.0000       1.625358        44.2282 
 348   0.0000       1.627342        44.2822 
 349   0.0000       1.627590        44.2890 
 350   0.0000       1.636025        44.5185 
 351   0.0000       1.640030        44.6275 
 352   0.0000       1.643411        44.7195 
 353   0.0000       1.645360        44.7725 
 354   0.0000       1.648371        44.8544 
 355   0.0000       1.651716        44.9455 
 356   0.0000       1.657326        45.0981 
 357   0.0000       1.659387        45.1542 
 358   0.0000       1.664067        45.2816 
 359   0.0000       1.670765        45.4638 
 360   0.0000       1.676839        45.6291 
 361   0.0000       1.679475        45.7008 
 362   0.0000       1.685943        45.8769 
 363   0.0000       1.690830        46.0098 
 364   0.0000       1.697075        46.1798 
 365   0.0000       1.700211        46.2651 
 366   0.0000       1.709692        46.5231 
 367   0.0000       1.717152        46.7261 
 368   0.0000       1.722641        46.8755 
 369   0.0000       1.732909        47.1548 
 370   0.0000       1.736708        47.2582 
 371   0.0000       1.746666        47.5292 
 372   0.0000       1.748585        47.5814 
 373   0.0000       1.760060        47.8937 
 374   0.0000       1.763053        47.9751 
 375   0.0000       1.772008        48.2188 
 376   0.0000       1.778370        48.3919 
 377   0.0000       1.781875        48.4873 
 378   0.0000       1.791385        48.7461 
 379   0.0000       1.797755        48.9194 
 380   0.0000       1.806087        49.1461 
 381   0.0000       1.809411        49.2366 
 382   0.0000       1.814304        49.3697 
 383   0.0000       1.825260        49.6679 
 384   0.0000       1.837106        49.9902 
 385   0.0000       1.842732        50.1433 
 386   0.0000       1.846344        50.2416 
 387   0.0000       1.858434        50.5706 
 388   0.0000       1.859381        50.5963 
[...]
      dxz     :     0.016650
      dyz     :     0.108419
      dx2y2   :     0.069096
      dxy     :     0.093831
      f0      :     0.005730  f :     0.044457
      f+1     :     0.000998
      f-1     :     0.012513
      f+2     :     0.007165
      f-2     :     0.007997
      f+3     :     0.004730
      f-3     :     0.005325
 13 C s       :     2.750825  s :     2.750825
      pz      :     1.025497  p :     2.983829
      px      :     0.953471
      py      :     1.004860
      dz2     :     0.113749  d :     0.370769
      dxz     :     0.064413
      dyz     :     0.124046
      dx2y2   :     0.044402
      dxy     :     0.024159
      f0      :     0.008509  f :     0.042186
      f+1     :     0.005127
      f-1     :     0.013313
      f+2     :     0.005059
      f-2     :     0.004694
      f+3     :     0.002415
      f-3     :     0.003069
 14 C s       :     2.696823  s :     2.696823
      pz      :     0.998211  p :     2.786144
      px      :     0.828874
      py      :     0.959059
      dz2     :     0.137161  d :     0.625740
      dxz     :     0.107460
      dyz     :     0.192012
      dx2y2   :     0.074870
      dxy     :     0.114237
      f0      :     0.010438  f :     0.076059
      f+1     :     0.006549
      f-1     :     0.022101
      f+2     :     0.009852
      f-2     :     0.013944
      f+3     :     0.006840
      f-3     :     0.006335
 15 N s       :     2.881983  s :     2.881983
      pz      :     1.125435  p :     3.642800
      px      :     1.400272
      py      :     1.117093
      dz2     :     0.071202  d :     0.286781
      dxz     :     0.039537
      dyz     :     0.095711
      dx2y2   :     0.042007
      dxy     :     0.038324
      f0      :     0.002868  f :     0.019524
      f+1     :     0.001985
      f-1     :     0.005373
      f+2     :     0.002668
      f-2     :     0.002706
      f+3     :     0.001866
      f-3     :     0.002058
 16 C s       :     2.775849  s :     2.775849
      pz      :     1.028455  p :     2.983993
      px      :     1.040491
      py      :     0.915047
      dz2     :     0.068507  d :     0.482124
      dxz     :     0.102755
      dyz     :     0.100790
      dx2y2   :     0.120642
      dxy     :     0.089430
      f0      :     0.005916  f :     0.053970
      f+1     :     0.002969
      f-1     :     0.010750
      f+2     :     0.006974
      f-2     :     0.008470
      f+3     :     0.011405
      f-3     :     0.007486
 17 C s       :     2.828543  s :     2.828543
      pz      :     1.066874  p :     3.195015
      px      :     1.074748
      py      :     1.053393
      dz2     :     0.035653  d :     0.263747
      dxz     :     0.078006
      dyz     :     0.063543
      dx2y2   :     0.063097
      dxy     :     0.023447
      f0      :     0.004126  f :     0.025004
      f+1     :     0.001843
      f-1     :     0.004781
      f+2     :     0.004366
      f-2     :     0.003573
      f+3     :     0.004053
      f-3     :     0.002262
 18 C s       :     2.772997  s :     2.772997
      pz      :     0.897312  p :     2.991045
      px      :     1.041880
      py      :     1.051854
      dz2     :     0.095012  d :     0.476732
      dxz     :     0.134196
      dyz     :     0.090078
      dx2y2   :     0.070626
      dxy     :     0.086820
      f0      :     0.013522  f :     0.054040
      f+1     :     0.011779
      f-1     :     0.006343
      f+2     :     0.006924
      f-2     :     0.005609
      f+3     :     0.005018
      f-3     :     0.004846
 19 C s       :     2.830259  s :     2.830259
      pz      :     1.070163  p :     3.197736
      px      :     1.055085
      py      :     1.072488
      dz2     :     0.046699  d :     0.257232
      dxz     :     0.049786
      dyz     :     0.030201
      dx2y2   :     0.049440
      dxy     :     0.081105
      f0      :     0.003704  f :     0.024594
      f+1     :     0.002956
      f-1     :     0.000945
      f+2     :     0.004358
      f-2     :     0.002702
      f+3     :     0.005171
      f-3     :     0.004757
 20 C s       :     2.751314  s :     2.751314
      pz      :     0.996909  p :     2.967383
      px      :     0.936873
      py      :     1.033601
      dz2     :     0.116545  d :     0.372423
      dxz     :     0.015467
      dyz     :     0.104308
      dx2y2   :     0.065615
      dxy     :     0.070488
      f0      :     0.005828  f :     0.042383
      f+1     :     0.000886
      f-1     :     0.011948
      f+2     :     0.007109
      f-2     :     0.006529
      f+3     :     0.004691
      f-3     :     0.005393
 21 C s       :     2.751581  s :     2.751581
      pz      :     1.043267  p :     2.909711
      px      :     0.860198
      py      :     1.006246
      dz2     :     0.117533  d :     0.400934
      dxz     :     0.083055
      dyz     :     0.129816
      dx2y2   :     0.044542
      dxy     :     0.025989
      f0      :     0.008643  f :     0.044808
      f+1     :     0.005605
      f-1     :     0.014068
      f+2     :     0.005220
      f-2     :     0.005568
      f+3     :     0.002510
      f-3     :     0.003194
 22 H s       :     0.814275  s :     0.814275
      pz      :     0.015198  p :     0.061127
      px      :     0.020909
      py      :     0.025019
 23 H s       :     0.812272  s :     0.812272
      pz      :     0.017793  p :     0.061746
      px      :     0.012122
      py      :     0.031832
 24 H s       :     0.827356  s :     0.827356
      pz      :     0.037260  p :     0.060748
      px      :     0.010241
      py      :     0.013247
 25 H s       :     0.790427  s :     0.790427
      pz      :     0.014502  p :     0.060083
      px      :     0.034522
      py      :     0.011059
 26 H s       :     0.794871  s :     0.794871
      pz      :     0.015387  p :     0.059104
      px      :     0.014757
      py      :     0.028961
 27 H s       :     0.794211  s :     0.794211
      pz      :     0.015330  p :     0.059031
      px      :     0.018259
      py      :     0.025442
 28 H s       :     0.790406  s :     0.790406
      pz      :     0.014496  p :     0.060079
      px      :     0.034506
      py      :     0.011078
 29 H s       :     0.814504  s :     0.814504
      pz      :     0.015261  p :     0.061143
      px      :     0.025138
      py      :     0.020744
 30 H s       :     0.827537  s :     0.827537
      pz      :     0.037229  p :     0.060718
      px      :     0.010556
      py      :     0.012933
 31 H s       :     0.812021  s :     0.812021
      pz      :     0.017777  p :     0.061622
      px      :     0.011243
      py      :     0.032603
 32 H s       :     0.804361  s :     0.804361
      pz      :     0.032886  p :     0.055295
      px      :     0.008726
      py      :     0.013683
 33 H s       :     0.787427  s :     0.787427
      pz      :     0.033925  p :     0.058339
      px      :     0.013061
      py      :     0.011353
 34 H s       :     0.786116  s :     0.786116
      pz      :     0.014553  p :     0.062760
      px      :     0.016378
      py      :     0.031828
 35 H s       :     0.812587  s :     0.812587
      pz      :     0.015932  p :     0.058461
      px      :     0.032282
      py      :     0.010247
 36 H s       :     0.801412  s :     0.801412
      pz      :     0.025181  p :     0.059300
      px      :     0.022703
      py      :     0.011416
 37 H s       :     0.818295  s :     0.818295
      pz      :     0.024212  p :     0.061907
      px      :     0.024501
      py      :     0.013194
 38 H s       :     0.813561  s :     0.813561
      pz      :     0.017040  p :     0.061321
      px      :     0.031420
      py      :     0.012861
 39 H s       :     0.810213  s :     0.810213
      pz      :     0.018958  p :     0.061123
      px      :     0.013787
      py      :     0.028378
 40 H s       :     0.805099  s :     0.805099
      pz      :     0.013848  p :     0.060374
      px      :     0.019300
      py      :     0.027227
 41 H s       :     0.801250  s :     0.801250
      pz      :     0.017249  p :     0.060440
      px      :     0.014064
      py      :     0.029127
 42 H s       :     0.814170  s :     0.814170
      pz      :     0.020081  p :     0.061940
      px      :     0.014159
      py      :     0.027701
 43 H s       :     0.814571  s :     0.814571
      pz      :     0.033101  p :     0.061314
      px      :     0.013934
      py      :     0.014278
 44 H s       :     0.817076  s :     0.817076
      pz      :     0.015552  p :     0.061306
      px      :     0.019353
      py      :     0.026401
 45 H s       :     0.786535  s :     0.786535
      pz      :     0.034613  p :     0.062032
      px      :     0.015026
      py      :     0.012393
 46 H s       :     0.785123  s :     0.785123
      pz      :     0.013633  p :     0.058941
      px      :     0.012971
      py      :     0.032338


                      *****************************
                      * MAYER POPULATION ANALYSIS *
                      *****************************

  NA   - Mulliken gross atomic population
  ZA   - Total nuclear charge
  QA   - Mulliken gross atomic charge
  VA   - Mayer's total valence
  BVA  - Mayer's bonded valence
  FA   - Mayer's free valence

  ATOM       NA         ZA         QA         VA         BVA        FA
  0 C      6.3281     6.0000    -0.3281     3.8998     3.8998    -0.0000
  1 N      7.1061     7.0000    -0.1061     3.0873     3.0873    -0.0000
  2 C      5.9274     6.0000     0.0726     3.9076     3.9076    -0.0000
  3 C      6.2629     6.0000    -0.2629     3.9328     3.9328    -0.0000
  4 C      6.1695     6.0000    -0.1695     3.9248     3.9248    -0.0000
  5 C      6.1654     6.0000    -0.1654     3.9139     3.9139    -0.0000
  6 C      6.2683     6.0000    -0.2683     3.9252     3.9252    -0.0000
  7 C      5.9236     6.0000     0.0764     3.8945     3.8945    -0.0000
  8 N      7.1089     7.0000    -0.1089     3.0926     3.0926    -0.0000
  9 C      6.3263     6.0000    -0.3263     3.8978     3.8978    -0.0000
 10 C      5.8724     6.0000     0.1276     3.7690     3.7690    -0.0000
 11 C      5.9650     6.0000     0.0350     3.3955     3.3955    -0.0000
 12 C      6.2129     6.0000    -0.2129     3.9971     3.9971    -0.0000
 13 C      6.3119     6.0000    -0.3119     3.9330     3.9330    -0.0000
 14 C      5.6895     6.0000     0.3105     3.7059     3.7059    -0.0000
 15 N      7.1043     7.0000    -0.1043     3.1077     3.1077    -0.0000
 16 C      6.1421     6.0000    -0.1421     3.8304     3.8304    -0.0000
 17 C      6.4258     6.0000    -0.4258     3.9217     3.9217    -0.0000
 18 C      6.1870     6.0000    -0.1870     3.9201     3.9201    -0.0000
 19 C      6.3761     6.0000    -0.3761     3.8604     3.8604    -0.0000
 20 C      6.3331     6.0000    -0.3331     3.9712     3.9712    -0.0000
 21 C      6.2486     6.0000    -0.2486     4.0898     4.0898    -0.0000
 22 H      0.8493     1.0000     0.1507     0.9600     0.9600    -0.0000
 23 H      0.8453     1.0000     0.1547     0.9622     0.9622    -0.0000
 24 H      0.8750     1.0000     0.1250     0.9724     0.9724    -0.0000
 25 H      0.8489     1.0000     0.1511     0.9722     0.9722    -0.0000
 26 H      0.8635     1.0000     0.1365     0.9678     0.9678    -0.0000
 27 H      0.8586     1.0000     0.1414     0.9662     0.9662    -0.0000
 28 H      0.8489     1.0000     0.1511     0.9723     0.9723    -0.0000
 29 H      0.8509     1.0000     0.1491     0.9608     0.9608    -0.0000
 30 H      0.8768     1.0000     0.1232     0.9730     0.9730    -0.0000
 31 H      0.8430     1.0000     0.1570     0.9621     0.9621    -0.0000
 32 H      0.9117     1.0000     0.0883     0.9822     0.9822    -0.0000
 33 H      0.8570     1.0000     0.1430     0.9796     0.9796    -0.0000
 34 H      0.8506     1.0000     0.1494     0.9787     0.9787    -0.0000
 35 H      0.8743     1.0000     0.1257     0.9527     0.9527    -0.0000
 36 H      0.8742     1.0000     0.1258     0.9510     0.9510    -0.0000
 37 H      0.8602     1.0000     0.1398     0.9589     0.9589    -0.0000
 38 H      0.8603     1.0000     0.1397     0.9671     0.9671    -0.0000
 39 H      0.8583     1.0000     0.1417     0.9699     0.9699    -0.0000
 40 H      0.8644     1.0000     0.1356     0.9606     0.9606    -0.0000
 41 H      0.8530     1.0000     0.1470     0.9531     0.9531    -0.0000
 42 H      0.8606     1.0000     0.1394     0.9700     0.9700    -0.0000
 43 H      0.8694     1.0000     0.1306     0.9735     0.9735    -0.0000
 44 H      0.8705     1.0000     0.1295     0.9679     0.9679    -0.0000
 45 H      0.8579     1.0000     0.1421     0.9750     0.9750    -0.0000
 46 H      0.8622     1.0000     0.1378     1.0004     1.0004    -0.0000

  Mayer bond orders larger than 0.100000
B(  0-C ,  1-N ) :   0.9489 B(  0-C , 22-H ) :   0.9663 B(  0-C , 23-H ) :   0.9679 
B(  0-C , 24-H ) :   0.9627 B(  1-N ,  2-C ) :   1.1390 B(  1-N , 10-C ) :   0.9816 
B(  2-C ,  3-C ) :   1.4009 B(  2-C ,  7-C ) :   1.2654 B(  3-C ,  4-C ) :   1.3639 
B(  3-C , 25-H ) :   0.9703 B(  4-C ,  5-C ) :   1.4737 B(  4-C , 26-H ) :   0.9869 
B(  5-C ,  6-C ) :   1.3595 B(  5-C , 27-H ) :   0.9864 B(  6-C ,  7-C ) :   1.4001 
B(  6-C , 28-H ) :   0.9702 B(  7-C ,  8-N ) :   1.1330 B(  8-N ,  9-C ) :   0.9439 
B(  8-N , 10-C ) :   0.9935 B(  9-C , 29-H ) :   0.9670 B(  9-C , 30-H ) :   0.9625 
B(  9-C , 31-H ) :   0.9692 B( 10-C , 11-C ) :   0.8850 B( 10-C , 32-H ) :   0.9806 
B( 11-C , 12-C ) :   1.3418 B( 11-C , 21-C ) :   1.3133 B( 12-C , 13-C ) :   1.4816 
B( 12-C , 33-H ) :   0.9805 B( 13-C , 14-C ) :   1.2779 B( 13-C , 34-H ) :   0.9800 
B( 14-C , 15-N ) :   1.2327 B( 14-C , 20-C ) :   1.2275 B( 15-N , 16-C ) :   0.9594 
B( 15-N , 18-C ) :   0.9284 B( 16-C , 17-C ) :   0.9607 B( 16-C , 35-H ) :   0.9606 
B( 16-C , 36-H ) :   0.9525 B( 17-C , 37-H ) :   0.9795 B( 17-C , 38-H ) :   0.9767 
B( 17-C , 39-H ) :   0.9727 B( 18-C , 19-C ) :   0.9631 B( 18-C , 40-H ) :   0.9641 
B( 18-C , 41-H ) :   0.9727 B( 19-C , 42-H ) :   0.9724 B( 19-C , 43-H ) :   0.9763 
B( 19-C , 44-H ) :   0.9695 B( 20-C , 21-C ) :   1.5403 B( 20-C , 45-H ) :   0.9757 
B( 21-C , 46-H ) :   0.9971 

-------
TIMINGS
-------

Total SCF time: 0 days 0 hours 16 min 25 sec 

Total time                  ....     985.688 sec
Sum of individual times     ....     983.142 sec  ( 99.7%)

Fock matrix formation       ....     976.083 sec  ( 99.0%)
  XC integration            ....       6.624 sec  (  0.7% of F)
    Basis function eval.    ....       1.190 sec  ( 18.0% of XC)
    Density eval.           ....       1.955 sec  ( 29.5% of XC)
    XC-Functional eval.     ....       0.394 sec  (  5.9% of XC)
    XC-Potential eval.      ....       2.515 sec  ( 38.0% of XC)
Diagonalization             ....       0.579 sec  (  0.1%)
Density matrix formation    ....       0.069 sec  (  0.0%)
Population analysis         ....       0.380 sec  (  0.0%)
Initial guess               ....       0.626 sec  (  0.1%)
Orbital Transformation      ....       0.000 sec  (  0.0%)
Orbital Orthonormalization  ....       0.567 sec  (  0.1%)
DIIS solution               ....       0.170 sec  (  0.0%)
SOSCF solution              ....       2.166 sec  (  0.2%)
Grid generation             ....       3.069 sec  (  0.3%)


-------------------------------------------------------------------------------
                          DFT DISPERSION CORRECTION                            
                                                                               
                              DFTD3 V3.1  Rev 1                                
                              USING zero damping                               
-------------------------------------------------------------------------------
The omegaB97X-D3 functional is recognized. Fit by Chai et al.
Active option DFTDOPT                   ...         3   

molecular C6(AA) [au] = 21079.332501 


            DFT-D V3
 parameters
 s6 scaling factor         :     1.0000 
 rs6 scaling factor        :     1.2810 
 s8 scaling factor         :     1.0000 
 rs8 scaling factor        :     1.0940 
 Damping factor alpha6     :    14.0000 
 Damping factor alpha8     :    16.0000 
 ad hoc parameters k1-k3   :    16.0000     1.3333    -4.0000 

 Edisp/kcal,au: -13.811112831120  -0.022009406915 
 E6   /kcal   :  -6.552411551 
 E8   /kcal   :  -7.258701281 
 % E8         :  52.556961697 

-------------------------   ----------------
Dispersion correction           -0.022009407
-------------------------   ----------------


-------------------------   --------------------
FINAL SINGLE POINT ENERGY      -903.402862007318
-------------------------   --------------------

                                *** OPTIMIZATION RUN DONE ***

                            ***************************************
                            *     ORCA property calculations      *
                            ***************************************

                                    ---------------------
                                    Active property flags
                                    ---------------------
   (+) Dipole Moment


------------------------------------------------------------------------------
                       ORCA ELECTRIC PROPERTIES CALCULATION
------------------------------------------------------------------------------

Dipole Moment Calculation                       ... on
Quadrupole Moment Calculation                   ... off
Polarizability Calculation                      ... off
GBWName                                         ... DRBI.gbw
Electron density file                           ... DRBI.scfp
The origin for moment calculation is the CENTER OF MASS  = (-4.932599,  5.502007  3.351544)

-------------
DIPOLE MOMENT
-------------
                                X             Y             Z
Electronic contribution:      5.52241      19.42369     -10.41563
Nuclear contribution   :     -5.92857     -21.29082      10.85683
                        -----------------------------------------
Total Dipole Moment    :     -0.40616      -1.86713       0.44120
                        -----------------------------------------
Magnitude (a.u.)       :      1.96107
Magnitude (Debye)      :      4.98464



--------------------
Rotational spectrum 
--------------------
 
Rotational constants in cm-1:     0.027433     0.003872     0.003736 
Rotational constants in MHz :   822.427872   116.088859   111.998688 

 Dipole components along the rotational axes: 
x,y,z [a.u.] :     1.878999     0.066891    -0.557389 
x,y,z [Debye]:     4.776035     0.170022    -1.416769 

 
--------------------------------------------------------------------------
[[13830,1],3]: A high-performance Open MPI point-to-point messaging module
was unable to find any relevant network interfaces:

Module: OpenFabrics (openib)
  Host: compute-1-5

Another transport will be used instead, although this may result in
lower performance.

NOTE: You can disable this warning by setting the MCA parameter
btl_base_warn_component_unused to 0.
--------------------------------------------------------------------------
[compute-1-5.local:55250] 7 more processes have sent help message help-mpi-btl-base.txt / btl:no-nics
[compute-1-5.local:55250] Set MCA parameter "orte_base_help_aggregate" to 0 to see all help / error messages

Timings for individual modules:

Sum of individual times         ...   147916.157 sec (=2465.269 min)
GTO integral calculation        ...      114.553 sec (=   1.909 min)   0.1 %
SCF iterations                  ...    90126.490 sec (=1502.108 min)  60.9 %
SCF Gradient evaluation         ...    57640.660 sec (= 960.678 min)  39.0 %
Geometry relaxation             ...       34.455 sec (=   0.574 min)   0.0 %
                             ****ORCA TERMINATED NORMALLY****
TOTAL RUN TIME: 1 days 17 hours 5 minutes 51 seconds 333 msec
