Warning: no access to tty (Bad file descriptor).
Thus no job control in this shell.

                                 *****************
                                 * O   R   C   A *
                                 *****************

           --- An Ab Initio, DFT and Semiempirical electronic structure package ---

                  #######################################################
                  #                        -***-                        #
                  #          Department of theory and spectroscopy      #
                  #               Directorship: Frank Neese             #
                  #        Max Planck Institute fuer Kohlenforschung    #
                  #                Kaiser Wilhelm Platz 1               #
                  #                 D-45470 Muelheim/Ruhr               #
                  #                      Germany                        #
                  #                                                     #
                  #                  All rights reserved                #
                  #                        -***-                        #
                  #######################################################


                         Program Version 4.2.1 -  RELEASE  -


 With contributions from (in alphabetic order):
   Daniel Aravena         : Magnetic Suceptibility
   Michael Atanasov       : Ab Initio Ligand Field Theory (pilot matlab implementation)
   Alexander A. Auer      : GIAO ZORA, VPT2
   Ute Becker             : Parallelization
   Giovanni Bistoni       : ED, misc. LED, open-shell LED, HFLD
   Martin Brehm           : Molecular dynamics
   Dmytro Bykov           : SCF Hessian
   Vijay G. Chilkuri      : MRCI spin determinant printing, contributions to CSF-ICE
   Dipayan Datta          : RHF DLPNO-CCSD density
   Achintya Kumar Dutta   : EOM-CC, STEOM-CC
   Dmitry Ganyushin       : Spin-Orbit,Spin-Spin,Magnetic field MRCI
   Miquel Garcia          : C-PCM Hessian, Gaussian charge scheme
   Yang Guo               : DLPNO-NEVPT2, CIM, IAO-localization
   Andreas Hansen         : Spin unrestricted coupled pair/coupled cluster methods
   Benjamin Helmich-Paris : CASSCF linear response (MC-RPA)
   Lee Huntington         : MR-EOM, pCC
   Robert Izsak           : Overlap fitted RIJCOSX, COSX-SCS-MP3, EOM
   Christian Kollmar      : KDIIS, OOCD, Brueckner-CCSD(T), CCSD density
   Simone Kossmann        : Meta GGA functionals, TD-DFT gradient, OOMP2, MP2 Hessian
   Martin Krupicka        : AUTO-CI
   Lucas Lang             : DCDCAS
   Dagmar Lenk            : GEPOL surface, SMD
   Dimitrios Liakos       : Extrapolation schemes; Compound Job, initial MDCI parallelization
   Dimitrios Manganas     : Further ROCIS development; embedding schemes
   Dimitrios Pantazis     : SARC Basis sets
   Taras Petrenko         : DFT Hessian,TD-DFT gradient, ASA, ECA, R-Raman, ABS, FL, XAS/XES, NRVS
   Peter Pinski           : DLPNO-MP2, DLPNO-MP2 Gradient
   Christoph Reimann      : Effective Core Potentials
   Marius Retegan         : Local ZFS, SOC
   Christoph Riplinger    : Optimizer, TS searches, QM/MM, DLPNO-CCSD(T), (RO)-DLPNO pert. Triples
   Tobias Risthaus        : Range-separated hybrids, TD-DFT gradient, RPA, STAB
   Michael Roemelt        : Original ROCIS implementation
   Masaaki Saitow         : Open-shell DLPNO-CCSD energy and density
   Barbara Sandhoefer     : DKH picture change effects
   Avijit Sen             : IP-ROCIS
   Kantharuban Sivalingam : CASSCF convergence, NEVPT2, FIC-MRCI
   Bernardo de Souza      : ESD, SOC TD-DFT
   Georgi Stoychev        : AutoAux, RI-MP2 NMR
   Willem Van den Heuvel  : Paramagnetic NMR
   Boris Wezisla          : Elementary symmetry handling
   Frank Wennmohs         : Technical directorship


 We gratefully acknowledge several colleagues who have allowed us to
 interface, adapt or use parts of their codes:
   Stefan Grimme, W. Hujo, H. Kruse,             : VdW corrections, initial TS optimization,
                  C. Bannwarth                     DFT functionals, gCP, sTDA/sTD-DF
   Ed Valeev, F. Pavosevic, A. Kumar             : LibInt (2-el integral package), F12 methods
   Garnet Chan, S. Sharma, J. Yang, R. Olivares  : DMRG
   Ulf Ekstrom                                   : XCFun DFT Library
   Mihaly Kallay                                 : mrcc  (arbitrary order and MRCC methods)
   Andreas Klamt, Michael Diedenhofen            : otool_cosmo (COSMO solvation model)
   Jiri Pittner, Ondrej Demel                    : Mk-CCSD
   Frank Weinhold                                : gennbo (NPA and NBO analysis)
   Christopher J. Cramer and Donald G. Truhlar   : smd solvation model
   Lars Goerigk                                  : TD-DFT with DH, B97 family of functionals
   V. Asgeirsson, H. Jonsson                     : NEB implementation
   FAccTs GmbH                                   : IRC, NEB, NEB-TS, Multilevel, MM, QM/MM, CI optimization
   S Lehtola, MJT Oliveira, MAL Marques          : LibXC Library


 Your calculation uses the libint2 library for the computation of 2-el integrals
 For citations please refer to: http://libint.valeyev.net

 Your ORCA version has been built with support for libXC version: 4.2.3
 For citations please refer to: https://tddft.org/programs/libxc/

 This ORCA versions uses:
   CBLAS   interface :  Fast vector & matrix operations
   LAPACKE interface :  Fast linear algebra routines
   SCALAPACK package :  Parallel linear algebra routines


Your calculation utilizes the atom-pairwise dispersion correction
with the zero-damping scheme (D30)
Cite in your paper:
S.Grimme, J.Antony, S.Ehrlich and H.Krieg, J.Chem.Phys., 132, (2010), 154104 
   

XCFun DFT library Copyright 2009-2010 Ulf Ekstrom and contributors.
See http://admol.org/xcfun for more information. This is free soft-
ware; see the source code for copying conditions. There is ABSOLUTELY
NO WARRANTY; not even for MERCHANTABILITY or FITNESS FOR A PARTICULAR
PURPOSE. For details see the documentation. Scientific users of this 
library should cite U. Ekstrom, L. Visscher, R. Bast, A. J. Thorvald-
sen and K. Ruud; J.Chem.Theor.Comp. 2010, DOI: 10.1021/ct100117s
XCFun Version 0.99 
----- Orbital basis set information -----
Your calculation utilizes the basis: def2-TZVP
   F. Weigend and R. Ahlrichs, Phys. Chem. Chem. Phys. 7, 3297 (2005).

----- AuxJ basis set information -----
Your calculation utilizes the auxiliary basis: def2/J
   F. Weigend, Phys. Chem. Chem. Phys. 8, 1057 (2006).

================================================================================
                                        WARNINGS
                       Please study these warnings very carefully!
================================================================================


WARNING: Geometry Optimization
  ===> : Switching off AutoStart
         For restart on a previous wavefunction, please use MOREAD

INFO   : the flag for use of LIBINT has been found!

================================================================================
                                       INPUT FILE
================================================================================
NAME = p-Me-DMBI.inp
|  1> # avogadro generated ORCA input file 
|  2> # Basic Mode
|  3> # 
|  4> ! wB97X-D3 OPT def2-TZVP def2/J CPCM
|  5> %cpcm
|  6>   epsilon 3
|  7> end
|  8> %pal
|  9>  nprocs 4
| 10> end
| 11> 
| 12> * xyz 0 1
| 13>    C       -7.19042       -2.14040        0.00062
| 14>    C       -6.97821       -3.52681        0.00084
| 15>    C       -6.09935       -1.26044        0.00031
| 16>    H       -8.19968       -1.74883        0.00063
| 17>    C       -5.67296       -4.03757        0.00078
| 18>    H       -7.82431       -4.20188        0.00100
| 19>    C       -4.79713       -1.79756        0.00006
| 20>    H       -6.30188       -0.20184        0.00003
| 21>    C       -4.59047       -3.13630        0.00029
| 22>    H       -5.52697       -5.10887        0.00089
| 23>    N       -3.55799       -1.12222       -0.00066
| 24>    N       -3.20585       -3.44360       -0.00010
| 25>    C       -2.43547       -2.15153       -0.00369
| 26>    C       -0.77207       -2.05872       -0.00064
| 27>    H       -2.06587       -1.24392       -0.00610
| 28>    C        1.39540       -0.73019        0.00070
| 29>    C        0.08748       -3.19257        0.00060
| 30>    C        2.14853       -1.89354        0.00116
| 31>    C        0.00489       -0.79551       -0.00000
| 32>    H       -0.50514        0.16207       -0.00070
| 33>    H        1.87975        0.23893        0.00056
| 34>    C        1.48819       -3.11615        0.00139
| 35>    H        2.06767       -4.03280        0.00188
| 36>    H       -0.22599       -4.18148        0.00063
| 37>    C        3.64931       -1.84279        0.00123
| 38>    H        4.02334       -0.79634        0.00081
| 39>    H        4.04174       -2.35346       -0.90323
| 40>    H        4.04175       -2.35292        0.90595
| 41>    C       -3.49692        0.37097        0.00072
| 42>    H       -4.48463        0.85914        0.00212
| 43>    H       -2.95459        0.71957       -0.90371
| 44>    H       -2.95271        0.71786        0.90464
| 45>    C       -2.85997       -4.86201        0.00048
| 46>    H       -1.83838       -5.16712       -0.00182
| 47>    H       -3.29866       -5.34222       -0.90042
| 48>    H       -3.29604       -5.34113        0.90321
| 49> *
| 50> 
| 51> 
| 52>                          ****END OF INPUT****
================================================================================

                       *****************************
                       * Geometry Optimization Run *
                       *****************************

Geometry optimization settings:
Update method            Update   .... BFGS
Choice of coordinates    CoordSys .... Z-matrix Internals
Initial Hessian          InHess   .... Almoef's Model

Convergence Tolerances:
Energy Change            TolE     ....  5.0000e-06 Eh
Max. Gradient            TolMAXG  ....  3.0000e-04 Eh/bohr
RMS Gradient             TolRMSG  ....  1.0000e-04 Eh/bohr
Max. Displacement        TolMAXD  ....  4.0000e-03 bohr
RMS Displacement         TolRMSD  ....  2.0000e-03 bohr
Strict Convergence                ....  False
------------------------------------------------------------------------------
                        ORCA OPTIMIZATION COORDINATE SETUP
------------------------------------------------------------------------------

The optimization will be done in new redundant internal coordinates
Making redundant internal coordinates   ...  (new redundants) done
Evaluating the initial hessian          ...  (Almloef) done
Evaluating the coordinates              ...  done
Calculating the B-matrix                .... done
Calculating the G-matrix                .... done
Diagonalizing the G-matrix              .... done
Small eigenvalue found = 4.578e-03
Small eigenvalue found = 2.355e-02
Small eigenvalue found = 2.704e-02
Small eigenvalue found = 2.967e-02
The first mode is                       ....   94
The number of degrees of freedom        ....  102

    -----------------------------------------------------------------
                    Redundant Internal Coordinates


    -----------------------------------------------------------------
         Definition                    Initial Value    Approx d2E/dq
    -----------------------------------------------------------------
      1. B(C   1,C   0)                  1.4026         0.596630   
      2. B(C   2,C   0)                  1.4017         0.598510   
      3. B(H   3,C   0)                  1.0826         0.370080   
      4. B(C   4,C   1)                  1.4016         0.598675   
      5. B(H   5,C   1)                  1.0824         0.370286   
      6. B(C   6,C   2)                  1.4086         0.583438   
      7. B(H   7,C   2)                  1.0778         0.376606   
      8. B(C   8,C   6)                  1.3546         0.711577   
      9. B(C   8,C   4)                  1.4086         0.583592   
     10. B(H   9,C   4)                  1.0812         0.371929   
     11. B(N  10,C   6)                  1.4112         0.517624   
     12. B(N  11,C   8)                  1.4183         0.504321   
     13. B(C  12,N  11)                  1.5043         0.367709   
     14. B(C  12,N  10)                  1.5230         0.343303   
     15. B(C  13,C  12)                  1.6660         0.226681   
     16. B(H  14,C  12)                  0.9800         0.539447   
     17. B(C  16,C  13)                  1.4228         0.553811   
     18. B(C  17,C  15)                  1.3859         0.634388   
     19. B(C  18,C  15)                  1.3920         0.620124   
     20. B(C  18,C  13)                  1.4830         0.443937   
     21. B(H  19,C  18)                  1.0849         0.366859   
     22. B(H  20,C  15)                  1.0834         0.368917   
     23. B(C  21,C  17)                  1.3895         0.625851   
     24. B(C  21,C  16)                  1.4028         0.596112   
     25. B(H  22,C  21)                  1.0845         0.367509   
     26. B(H  23,C  16)                  1.0374         0.436855   
     27. B(C  24,C  17)                  1.5016         0.414598   
     28. B(H  25,C  24)                  1.1113         0.333014   
     29. B(H  26,C  24)                  1.1103         0.334186   
     30. B(H  27,C  24)                  1.1103         0.334226   
     31. B(C  28,N  10)                  1.4944         0.381285   
     32. B(H  29,C  28)                  1.1018         0.344870   
     33. B(H  30,C  28)                  1.1107         0.333741   
     34. B(H  31,C  28)                  1.1107         0.333779   
     35. B(C  32,N  11)                  1.4600         0.432751   
     36. B(H  33,C  32)                  1.0662         0.393028   
     37. B(H  34,C  32)                  1.1112         0.333171   
     38. B(H  35,C  32)                  1.1111         0.333191   
     39. A(C   2,C   0,H   3)          119.9083         0.352435   
     40. A(C   1,C   0,H   3)          119.9075         0.352248   
     41. A(C   1,C   0,C   2)          120.1842         0.428358   
     42. A(C   0,C   1,C   4)          120.0734         0.428379   
     43. A(C   4,C   1,H   5)          120.0440         0.352485   
     44. A(C   0,C   1,H   5)          119.8826         0.352281   
     45. A(C   0,C   2,H   7)          118.0557         0.353480   
     46. A(C   0,C   2,C   6)          118.6990         0.426645   
     47. A(C   6,C   2,H   7)          123.2453         0.351957   
     48. A(C   8,C   4,H   9)          122.0203         0.351230   
     49. A(C   1,C   4,C   8)          118.8486         0.426686   
     50. A(C   1,C   4,H   9)          119.1311         0.352749   
     51. A(C   2,C   6,C   8)          121.1899         0.440131   
     52. A(C   2,C   6,N  10)          128.9949         0.413041   
     53. A(C   8,C   6,N  10)          109.8153         0.427935   
     54. A(C   6,C   8,N  11)          111.2887         0.425943   
     55. A(C   4,C   8,N  11)          127.7063         0.411156   
     56. A(C   4,C   8,C   6)          121.0050         0.440152   
     57. A(C   6,N  10,C  28)          120.9327         0.380875   
     58. A(C  12,N  10,C  28)          130.1777         0.354970   
     59. A(C   6,N  10,C  12)          108.8896         0.374024   
     60. A(C   8,N  11,C  32)          116.2174         0.387595   
     61. A(C  12,N  11,C  32)          135.4908         0.366990   
     62. A(C   8,N  11,C  12)          108.2917         0.376788   
     63. A(C  13,C  12,H  14)           64.6496         0.319291   
     64. A(N  11,C  12,H  14)          171.3524         0.343824   
     65. A(N  10,C  12,H  14)           69.6380         0.339894   
     66. A(N  11,C  12,C  13)          123.9980         0.331134   
     67. A(N  10,C  12,C  13)          134.2863         0.327399   
     68. A(N  10,C  12,N  11)          101.7144         0.352796   
     69. A(C  16,C  13,C  18)          111.2406         0.400867   
     70. A(C  12,C  13,C  18)          124.7879         0.343779   
     71. A(C  12,C  13,C  16)          123.9716         0.356855   
     72. A(C  17,C  15,C  18)          120.2287         0.435878   
     73. A(C  18,C  15,H  20)          119.2446         0.354370   
     74. A(C  17,C  15,H  20)          120.5267         0.355739   
     75. A(C  21,C  16,H  23)          110.7107         0.362265   
     76. A(C  13,C  16,H  23)          125.2471         0.357751   
     77. A(C  13,C  16,C  21)          124.0422         0.422382   
     78. A(C  21,C  17,C  24)          120.3105         0.404697   
     79. A(C  15,C  17,C  24)          120.9815         0.405666   
     80. A(C  15,C  17,C  21)          118.7080         0.436601   
     81. A(C  13,C  18,C  15)          124.2839         0.408954   
     82. A(C  15,C  18,H  19)          115.3513         0.354034   
     83. A(C  13,C  18,H  19)          120.3648         0.334724   
     84. A(C  17,C  21,H  22)          119.3263         0.354693   
     85. A(C  16,C  21,H  22)          119.1771         0.351781   
     86. A(C  16,C  21,C  17)          121.4966         0.431739   
     87. A(H  26,C  24,H  27)          109.1185         0.284135   
     88. A(H  25,C  24,H  27)          108.3000         0.283980   
     89. A(C  17,C  24,H  27)          109.7406         0.325902   
     90. A(H  25,C  24,H  26)          108.2901         0.283975   
     91. A(C  17,C  24,H  26)          109.7339         0.325896   
     92. A(C  17,C  24,H  25)          111.6050         0.325707   
     93. A(H  30,C  28,H  31)          108.9923         0.284017   
     94. A(H  29,C  28,H  31)          107.4482         0.285470   
     95. A(N  10,C  28,H  31)          109.4413         0.319471   
     96. A(H  29,C  28,H  30)          107.4399         0.285465   
     97. A(N  10,C  28,H  30)          109.4387         0.319465   
     98. A(N  10,C  28,H  29)          113.9586         0.321182   
     99. A(H  33,C  32,H  34)          104.6473         0.291286   
    100. A(N  11,C  32,H  34)          109.0270         0.326073   
    101. A(N  11,C  32,H  33)          120.3329         0.335107   
    102. A(H  34,C  32,H  35)          108.5064         0.283864   
    103. A(H  33,C  32,H  35)          104.7378         0.291289   
    104. A(N  11,C  32,H  35)          109.0424         0.326076   
    105. D(H   5,C   1,C   0,H   3)      0.0012         0.024525   
    106. D(C   4,C   1,C   0,C   2)      0.0014         0.024525   
    107. D(C   4,C   1,C   0,H   3)    179.9977         0.024525   
    108. D(H   5,C   1,C   0,C   2)   -179.9952         0.024525   
    109. D(H   7,C   2,C   0,C   1)    179.9929         0.024688   
    110. D(H   7,C   2,C   0,H   3)     -0.0034         0.024688   
    111. D(C   6,C   2,C   0,H   3)   -179.9887         0.024688   
    112. D(C   6,C   2,C   0,C   1)      0.0077         0.024688   
    113. D(C   8,C   4,C   1,C   0)     -0.0096         0.024702   
    114. D(C   8,C   4,C   1,H   5)    179.9870         0.024702   
    115. D(H   9,C   4,C   1,H   5)      0.0003         0.024702   
    116. D(H   9,C   4,C   1,C   0)   -179.9962         0.024702   
    117. D(N  10,C   6,C   2,C   0)    179.9795         0.023400   
    118. D(C   8,C   6,C   2,H   7)   -179.9931         0.023400   
    119. D(C   8,C   6,C   2,C   0)     -0.0086         0.023400   
    120. D(N  10,C   6,C   2,H   7)     -0.0049         0.023400   
    121. D(N  11,C   8,C   6,N  10)      0.0069         0.035762   
    122. D(C   4,C   8,C   6,N  10)   -179.9898         0.035762   
    123. D(N  11,C   8,C   4,H   9)     -0.0011         0.023413   
    124. D(C   4,C   8,C   6,C   2)      0.0004         0.035762   
    125. D(N  11,C   8,C   4,C   1)   -179.9873         0.023413   
    126. D(C   6,C   8,C   4,H   9)    179.9950         0.023413   
    127. D(C   6,C   8,C   4,C   1)      0.0088         0.023413   
    128. D(N  11,C   8,C   6,C   2)    179.9971         0.035762   
    129. D(C  28,N  10,C   6,C   8)   -179.9210         0.021235   
    130. D(C  28,N  10,C   6,C   2)      0.0898         0.021235   
    131. D(C  12,N  10,C   6,C   8)      0.1103         0.021235   
    132. D(C  12,N  10,C   6,C   2)   -179.8789         0.021235   
    133. D(C  32,N  11,C   8,C   4)     -0.0201         0.020119   
    134. D(C  12,N  11,C   8,C   6)     -0.1222         0.020119   
    135. D(C  12,N  11,C   8,C   4)    179.8742         0.020119   
    136. D(C  32,N  11,C   8,C   6)    179.9834         0.020119   
    137. D(H  14,C  12,N  11,C  32)    179.8553         0.011609   
    138. D(H  14,C  12,N  11,C   8)     -0.0095         0.011609   
    139. D(C  13,C  12,N  11,C   8)    179.8099         0.011609   
    140. D(N  10,C  12,N  11,C  32)   -179.9619         0.011609   
    141. D(N  10,C  12,N  11,C   8)      0.1734         0.011609   
    142. D(H  14,C  12,N  10,C  28)     -0.1656         0.010200   
    143. D(C  13,C  12,N  10,C  28)      0.2847         0.010200   
    144. D(C  13,C  12,N  10,C   6)   -179.7504         0.010200   
    145. D(C  13,C  12,N  11,C  32)     -0.3254         0.011609   
    146. D(H  14,C  12,N  10,C   6)    179.7993         0.010200   
    147. D(N  11,C  12,N  10,C  28)    179.8637         0.010200   
    148. D(N  11,C  12,N  10,C   6)     -0.1714         0.010200   
    149. D(C  18,C  13,C  12,H  14)      0.1629         0.004556   
    150. D(C  18,C  13,C  12,N  11)   -179.8071         0.004556   
    151. D(C  18,C  13,C  12,N  10)     -0.3043         0.004556   
    152. D(C  16,C  13,C  12,H  14)   -179.7839         0.004556   
    153. D(C  16,C  13,C  12,N  11)      0.2461         0.004556   
    154. D(C  16,C  13,C  12,N  10)    179.7489         0.004556   
    155. D(H  23,C  16,C  13,C  18)    179.9873         0.020992   
    156. D(H  23,C  16,C  13,C  12)     -0.0596         0.020992   
    157. D(C  21,C  16,C  13,C  18)     -0.0407         0.020992   
    158. D(C  21,C  16,C  13,C  12)    179.9124         0.020992   
    159. D(C  24,C  17,C  15,H  20)     -0.0109         0.027929   
    160. D(C  24,C  17,C  15,C  18)    179.9694         0.027929   
    161. D(C  21,C  17,C  15,H  20)    179.9970         0.027929   
    162. D(C  21,C  17,C  15,C  18)     -0.0227         0.027929   
    163. D(C  13,C  18,C  15,C  17)     -0.0155         0.026611   
    164. D(H  19,C  18,C  13,C  16)   -179.9941         0.013442   
    165. D(H  19,C  18,C  13,C  12)      0.0532         0.013442   
    166. D(C  15,C  18,C  13,C  16)      0.0452         0.013442   
    167. D(C  15,C  18,C  13,C  12)   -179.9075         0.013442   
    168. D(H  19,C  18,C  15,H  20)      0.0026         0.026611   
    169. D(H  19,C  18,C  15,C  17)   -179.9780         0.026611   
    170. D(C  13,C  18,C  15,H  20)    179.9651         0.026611   
    171. D(H  22,C  21,C  17,C  24)      0.0157         0.027135   
    172. D(H  22,C  21,C  17,C  15)   -179.9921         0.027135   
    173. D(C  16,C  21,C  17,C  24)   -179.9650         0.027135   
    174. D(C  16,C  21,C  17,C  15)      0.0272         0.027135   
    175. D(H  22,C  21,C  16,H  23)      0.0023         0.024480   
    176. D(H  22,C  21,C  16,C  13)   -179.9732         0.024480   
    177. D(C  17,C  21,C  16,H  23)    179.9831         0.024480   
    178. D(C  17,C  21,C  16,C  13)      0.0076         0.024480   
    179. D(H  27,C  24,C  17,C  21)    -59.9508         0.012721   
    180. D(H  27,C  24,C  17,C  15)    120.0572         0.012721   
    181. D(H  26,C  24,C  17,C  21)     59.9441         0.012721   
    182. D(H  26,C  24,C  17,C  15)   -120.0478         0.012721   
    183. D(H  25,C  24,C  17,C  21)    179.9882         0.012721   
    184. D(H  25,C  24,C  17,C  15)     -0.0038         0.012721   
    185. D(H  31,C  28,N  10,C  12)    -59.7303         0.012445   
    186. D(H  31,C  28,N  10,C   6)    120.3084         0.012445   
    187. D(H  30,C  28,N  10,C  12)     59.6462         0.012445   
    188. D(H  30,C  28,N  10,C   6)   -120.3150         0.012445   
    189. D(H  29,C  28,N  10,C  12)    179.9516         0.012445   
    190. D(H  29,C  28,N  10,C   6)     -0.0096         0.012445   
    191. D(H  35,C  32,N  11,C  12)    120.9304         0.015967   
    192. D(H  35,C  32,N  11,C   8)    -59.2127         0.015967   
    193. D(H  34,C  32,N  11,C  12)   -120.7610         0.015967   
    194. D(H  34,C  32,N  11,C   8)     59.0958         0.015967   
    195. D(H  33,C  32,N  11,C  12)      0.0154         0.015967   
    196. D(H  33,C  32,N  11,C   8)    179.8722         0.015967   
    -----------------------------------------------------------------

Number of atoms                         .... 36
Number of degrees of freedom            .... 196

         *************************************************************
         *                GEOMETRY OPTIMIZATION CYCLE   1            *
         *************************************************************
---------------------------------
CARTESIAN COORDINATES (ANGSTROEM)
---------------------------------
  C     -7.190420   -2.140400    0.000620
  C     -6.978210   -3.526810    0.000840
  C     -6.099350   -1.260440    0.000310
  H     -8.199680   -1.748830    0.000630
  C     -5.672960   -4.037570    0.000780
  H     -7.824310   -4.201880    0.001000
  C     -4.797130   -1.797560    0.000060
  H     -6.301880   -0.201840    0.000030
  C     -4.590470   -3.136300    0.000290
  H     -5.526970   -5.108870    0.000890
  N     -3.557990   -1.122220   -0.000660
  N     -3.205850   -3.443600   -0.000100
  C     -2.435470   -2.151530   -0.003690
  C     -0.772070   -2.058720   -0.000640
  H     -2.065870   -1.243920   -0.006100
  C      1.395400   -0.730190    0.000700
  C      0.087480   -3.192570    0.000600
  C      2.148530   -1.893540    0.001160
  C      0.004890   -0.795510   -0.000000
  H     -0.505140    0.162070   -0.000700
  H      1.879750    0.238930    0.000560
  C      1.488190   -3.116150    0.001390
  H      2.067670   -4.032800    0.001880
  H     -0.225990   -4.181480    0.000630
  C      3.649310   -1.842790    0.001230
  H      4.023340   -0.796340    0.000810
  H      4.041740   -2.353460   -0.903230
  H      4.041750   -2.352920    0.905950
  C     -3.496920    0.370970    0.000720
  H     -4.484630    0.859140    0.002120
  H     -2.954590    0.719570   -0.903710
  H     -2.952710    0.717860    0.904640
  C     -2.859970   -4.862010    0.000480
  H     -1.838380   -5.167120   -0.001820
  H     -3.298660   -5.342220   -0.900420
  H     -3.296040   -5.341130    0.903210

----------------------------
CARTESIAN COORDINATES (A.U.)
----------------------------
  NO LB      ZA    FRAG     MASS         X           Y           Z
   0 C     6.0000    0    12.011  -13.587925   -4.044770    0.001172
   1 C     6.0000    0    12.011  -13.186906   -6.664705    0.001587
   2 C     6.0000    0    12.011  -11.526101   -2.381886    0.000586
   3 H     1.0000    0     1.008  -15.495150   -3.304810    0.001191
   4 C     6.0000    0    12.011  -10.720341   -7.629902    0.001474
   5 H     1.0000    0     1.008  -14.785803   -7.940402    0.001890
   6 C     6.0000    0    12.011   -9.065262   -3.396896    0.000113
   7 H     1.0000    0     1.008  -11.908827   -0.381422    0.000057
   8 C     6.0000    0    12.011   -8.674731   -5.926748    0.000548
   9 H     1.0000    0     1.008  -10.444460   -9.654365    0.001682
  10 N     7.0000    0    14.007   -6.723627   -2.120688   -0.001247
  11 N     7.0000    0    14.007   -6.058179   -6.507461   -0.000189
  12 C     6.0000    0    12.011   -4.602371   -4.065802   -0.006973
  13 C     6.0000    0    12.011   -1.459001   -3.890417   -0.001209
  14 H     1.0000    0     1.008   -3.903929   -2.350668   -0.011527
  15 C     6.0000    0    12.011    2.636924   -1.379859    0.001323
  16 C     6.0000    0    12.011    0.165313   -6.033083    0.001134
  17 C     6.0000    0    12.011    4.060133   -3.578272    0.002192
  18 C     6.0000    0    12.011    0.009241   -1.503296   -0.000000
  19 H     1.0000    0     1.008   -0.954576    0.306268   -0.001323
  20 H     1.0000    0     1.008    3.552213    0.451512    0.001058
  21 C     6.0000    0    12.011    2.812272   -5.888670    0.002627
  22 H     1.0000    0     1.008    3.907330   -7.620888    0.003553
  23 H     1.0000    0     1.008   -0.427059   -7.901852    0.001191
  24 C     6.0000    0    12.011    6.896196   -3.482368    0.002324
  25 H     1.0000    0     1.008    7.603011   -1.504865    0.001531
  26 H     1.0000    0     1.008    7.637782   -4.447395   -1.706857
  27 H     1.0000    0     1.008    7.637801   -4.446374    1.711997
  28 C     6.0000    0    12.011   -6.608221    0.701032    0.001361
  29 H     1.0000    0     1.008   -8.474723    1.623539    0.004006
  30 H     1.0000    0     1.008   -5.583366    1.359790   -1.707764
  31 H     1.0000    0     1.008   -5.579813    1.356559    1.709522
  32 C     6.0000    0    12.011   -5.404560   -9.187867    0.000907
  33 H     1.0000    0     1.008   -3.474035   -9.764442   -0.003439
  34 H     1.0000    0     1.008   -6.233564  -10.095333   -1.701547
  35 H     1.0000    0     1.008   -6.228613  -10.093273    1.706820

--------------------------------
INTERNAL COORDINATES (ANGSTROEM)
--------------------------------
 C      0   0   0     0.000000000000     0.00000000     0.00000000
 C      1   0   0     1.402556886761     0.00000000     0.00000000
 C      1   2   0     1.401700197118   120.18415960     0.00000000
 H      1   2   3     1.082558456897   119.90752464   179.99634827
 C      2   1   3     1.401625250807   120.07340303     0.00000000
 H      2   1   3     1.082406920017   119.88259302   180.00482792
 C      3   1   2     1.408642923278   118.69901458     0.00000000
 H      3   1   2     1.077799814112   118.05568736   179.99291316
 C      7   3   1     1.354597060421   121.18985024     0.00000000
 H      5   2   1     1.081201545596   119.13110874   180.00376527
 N      7   3   1     1.411223785797   128.99487846   179.97950024
 N      9   7   3     1.418310962554   111.28871856   179.99707670
 C     12   9   7     1.504308185645   108.29165132   359.87777566
 C     13  12   9     1.665989963535   123.99801352   179.80986027
 H     13  12   9     0.979982591784   171.35236311     0.00000000
 C     14  13  12     2.542227361469   151.68763459   180.10464404
 C     14  13  12     1.422829421470   123.97157361     0.24614181
 C     16  14  13     1.385852889379    91.41242217   180.14682714
 C     16  14  13     1.392043552659    28.81628775     0.16022879
 H     19  16  14     1.084938038461   115.35131863   180.03753890
 H     16  14  13     1.083415209650   148.06091337     0.10266547
 C     18  16  14     1.389540996373   118.70798797   359.96986192
 H     22  18  16     1.084455869549   119.32630918   180.00787684
 H     17  14  13     1.037403696687   125.24706299   359.94041867
 C     18  16  14     1.501637831103   120.98146618   179.96195589
 H     25  18  16     1.111285840727   111.60504531     0.00000000
 H     25  18  16     1.110330151532   109.73386573   239.95217876
 H     25  18  16     1.110297279516   109.74064647   120.05720615
 C     11   7   3     1.494438966770   120.93267929     0.08978246
 H     29  11   7     1.101763564927   113.95862716     0.00000000
 H     29  11   7     1.110692312839   109.43866543   239.68496038
 H     29  11   7     1.110661317684   109.44131554   120.30841151
 C     12   9   7     1.459972684299   116.21743890   179.98344958
 H     33  12   9     1.066181752892   120.33289578   179.87224769
 H     33  12   9     1.111157671170   109.02696781    59.09584429
 H     33  12   9     1.111141067642   109.04244114   300.78726965

---------------------------
INTERNAL COORDINATES (A.U.)
---------------------------
 C      0   0   0     0.000000000000     0.00000000     0.00000000
 C      1   0   0     2.650448403223     0.00000000     0.00000000
 C      1   2   0     2.648829494416   120.18415960     0.00000000
 H      1   2   3     2.045739007496   119.90752464   179.99634827
 C      2   1   3     2.648687866414   120.07340303     0.00000000
 H      2   1   3     2.045452644293   119.88259302   180.00482792
 C      3   1   2     2.661949345481   118.69901458     0.00000000
 H      3   1   2     2.036746475863   118.05568736   179.99291316
 C      7   3   1     2.559817466010   121.18985024     0.00000000
 H      5   2   1     2.043174816750   119.13110874   180.00376527
 N      7   3   1     2.666826468832   128.99487846   179.97950024
 N      9   7   3     2.680219291965   111.28871856   179.99707670
 C     12   9   7     2.842730491886   108.29165132   359.87777566
 C     13  12   9     3.148264772943   123.99801352   179.80986027
 H     13  12   9     1.851898714482   171.35236311     0.00000000
 C     14  13  12     4.804113483337   151.68763459   180.10464404
 C     14  13  12     2.688757941863   123.97157361     0.24614181
 C     16  14  13     2.618882422830    91.41242217   180.14682714
 C     16  14  13     2.630581081017    28.81628775     0.16022879
 H     19  16  14     2.050235764965   115.35131863   180.03753890
 H     16  14  13     2.047358035563   148.06091337     0.10266547
 C     18  16  14     2.625851935000   118.70798797   359.96986192
 H     22  18  16     2.049324597772   119.32630918   180.00787684
 H     17  14  13     1.960408877056   125.24706299   359.94041867
 C     18  16  14     2.837684253120   120.98146618   179.96195589
 H     25  18  16     2.100025895478   111.60504531     0.00000000
 H     25  18  16     2.098219904630   109.73386573   239.95217876
 H     25  18  16     2.098157785523   109.74064647   120.05720615
 C     11   7   3     2.824080371055   120.93267929     0.08978246
 H     29  11   7     2.082031402044   113.95862716     0.00000000
 H     29  11   7     2.098904290318   109.43866543   239.68496038
 H     29  11   7     2.098845717963   109.44131554   120.30841151
 C     12   9   7     2.758948536331   116.21743890   179.98344958
 H     33  12   9     2.014791521950   120.33289578   179.87224769
 H     33  12   9     2.099783690117   109.02696781    59.09584429
 H     33  12   9     2.099752313996   109.04244114   300.78726965

---------------------
BASIS SET INFORMATION
---------------------
There are 3 groups of distinct atoms

 Group   1 Type C   : 11s6p2d1f contracted to 5s3p2d1f pattern {62111/411/11/1}
 Group   2 Type H   : 5s1p contracted to 3s1p pattern {311/1}
 Group   3 Type N   : 11s6p2d1f contracted to 5s3p2d1f pattern {62111/411/11/1}

Atom   0C    basis set group =>   1
Atom   1C    basis set group =>   1
Atom   2C    basis set group =>   1
Atom   3H    basis set group =>   2
Atom   4C    basis set group =>   1
Atom   5H    basis set group =>   2
Atom   6C    basis set group =>   1
Atom   7H    basis set group =>   2
Atom   8C    basis set group =>   1
Atom   9H    basis set group =>   2
Atom  10N    basis set group =>   3
Atom  11N    basis set group =>   3
Atom  12C    basis set group =>   1
Atom  13C    basis set group =>   1
Atom  14H    basis set group =>   2
Atom  15C    basis set group =>   1
Atom  16C    basis set group =>   1
Atom  17C    basis set group =>   1
Atom  18C    basis set group =>   1
Atom  19H    basis set group =>   2
Atom  20H    basis set group =>   2
Atom  21C    basis set group =>   1
Atom  22H    basis set group =>   2
Atom  23H    basis set group =>   2
Atom  24C    basis set group =>   1
Atom  25H    basis set group =>   2
Atom  26H    basis set group =>   2
Atom  27H    basis set group =>   2
Atom  28C    basis set group =>   1
Atom  29H    basis set group =>   2
Atom  30H    basis set group =>   2
Atom  31H    basis set group =>   2
Atom  32C    basis set group =>   1
Atom  33H    basis set group =>   2
Atom  34H    basis set group =>   2
Atom  35H    basis set group =>   2
---------------------------------
AUXILIARY/J BASIS SET INFORMATION
---------------------------------
There are 3 groups of distinct atoms

 Group   1 Type C   : 12s5p4d2f1g contracted to 6s4p3d1f1g pattern {711111/2111/211/2/1}
 Group   2 Type H   : 5s2p1d contracted to 3s1p1d pattern {311/2/1}
 Group   3 Type N   : 12s5p4d2f1g contracted to 6s4p3d1f1g pattern {711111/2111/211/2/1}

Atom   0C    basis set group =>   1
Atom   1C    basis set group =>   1
Atom   2C    basis set group =>   1
Atom   3H    basis set group =>   2
Atom   4C    basis set group =>   1
Atom   5H    basis set group =>   2
Atom   6C    basis set group =>   1
Atom   7H    basis set group =>   2
Atom   8C    basis set group =>   1
Atom   9H    basis set group =>   2
Atom  10N    basis set group =>   3
Atom  11N    basis set group =>   3
Atom  12C    basis set group =>   1
Atom  13C    basis set group =>   1
Atom  14H    basis set group =>   2
Atom  15C    basis set group =>   1
Atom  16C    basis set group =>   1
Atom  17C    basis set group =>   1
Atom  18C    basis set group =>   1
Atom  19H    basis set group =>   2
Atom  20H    basis set group =>   2
Atom  21C    basis set group =>   1
Atom  22H    basis set group =>   2
Atom  23H    basis set group =>   2
Atom  24C    basis set group =>   1
Atom  25H    basis set group =>   2
Atom  26H    basis set group =>   2
Atom  27H    basis set group =>   2
Atom  28C    basis set group =>   1
Atom  29H    basis set group =>   2
Atom  30H    basis set group =>   2
Atom  31H    basis set group =>   2
Atom  32C    basis set group =>   1
Atom  33H    basis set group =>   2
Atom  34H    basis set group =>   2
Atom  35H    basis set group =>   2


           ************************************************************
           *        Program running with 4 parallel MPI-processes     *
           *              working on a common directory               *
           ************************************************************
------------------------------------------------------------------------------
                           ORCA GTO INTEGRAL CALCULATION
------------------------------------------------------------------------------

                         BASIS SET STATISTICS AND STARTUP INFO

 # of primitive gaussian shells          ...  468
 # of primitive gaussian functions       ...  972
 # of contracted shells                  ...  270
 # of contracted basis functions         ...  666
 Highest angular momentum                ...    3
 Maximum contraction depth               ...    6
 Integral package used                   ... LIBINT
 Integral threshhold            Thresh   ...  2.500e-11
 Primitive cut-off              TCut     ...  2.500e-12


------------------------------ INTEGRAL EVALUATION ----------------------------


 * One electron integrals 
 Pre-screening matrix                    ... done
 Shell pair data                         ... done (   0.009 sec)



           ************************************************************
           *        Program running with 4 parallel MPI-processes     *
           *              working on a common directory               *
           ************************************************************
-------------------------------------------------------------------------------
                                 ORCA SCF
-------------------------------------------------------------------------------

------------
SCF SETTINGS
------------
Hamiltonian:
 Density Functional     Method          .... DFT(GTOs)
 Exchange Functional    Exchange        .... WB97X-D3
 Correlation Functional Correlation     .... WB97X-D3
 Gradients option       PostSCFGGA      .... off
 Hybrid DFT is turned on
   Fraction HF Exchange ScalHFX         ....  0.195728
   Scaling of DF-GGA-X  ScalDFX         ....  0.000000
   Scaling of DF-GGA-C  ScalDFC         ....  1.000000
   Scaling of DF-LDA-C  ScalLDAC        ....  1.000000
   Perturbative correction              ....  0.000000
   Density functional embedding theory  .... OFF
 Long-range corrected/Screened/Range-Separated Hybrid DFT is turned on
   Amount of maximum screened exact exchange              ....  0.804272
   Range separation parameter mu (erf(mu*r12)/r12)        ....  0.250000


General Settings:
 Integral files         IntName         .... p-Me-DMBI
 Hartree-Fock type      HFTyp           .... RHF
 Total Charge           Charge          ....    0
 Multiplicity           Mult            ....    1
 Number of Electrons    NEL             ....  128
 Basis Dimension        Dim             ....  666
 Nuclear Repulsion      ENuc            ....   1223.8693016520 Eh

Convergence Acceleration:
 DIIS                   CNVDIIS         .... on
   Start iteration      DIISMaxIt       ....    12
   Startup error        DIISStart       ....  0.200000
   # of expansion vecs  DIISMaxEq       ....     5
   Bias factor          DIISBfac        ....   1.050
   Max. coefficient     DIISMaxC        ....  10.000
 Newton-Raphson         CNVNR           .... off
 SOSCF                  CNVSOSCF        .... on
   Start iteration      SOSCFMaxIt      ....   150
   Startup grad/error   SOSCFStart      ....  0.003300
 Level Shifting         CNVShift        .... on
   Level shift para.    LevelShift      ....    0.2500
   Turn off err/grad.   ShiftErr        ....    0.0010
 Zerner damping         CNVZerner       .... off
 Static damping         CNVDamp         .... on
   Fraction old density DampFac         ....    0.7000
   Max. Damping (<1)    DampMax         ....    0.9800
   Min. Damping (>=0)   DampMin         ....    0.0000
   Turn off err/grad.   DampErr         ....    0.1000
 Fernandez-Rico         CNVRico         .... off

SCF Procedure:
 Maximum # iterations   MaxIter         ....   125
 SCF integral mode      SCFMode         .... Direct
   Integral package                     .... LIBINT
 Reset frequency        DirectResetFreq ....    20
 Integral Threshold     Thresh          ....  2.500e-11 Eh
 Primitive CutOff       TCut            ....  2.500e-12 Eh

Convergence Tolerance:
 Convergence Check Mode ConvCheckMode   .... Total+1el-Energy
 Convergence forced     ConvForced      .... 0
 Energy Change          TolE            ....  1.000e-08 Eh
 1-El. energy change                    ....  1.000e-05 Eh
 Orbital Gradient       TolG            ....  1.000e-05
 Orbital Rotation angle TolX            ....  1.000e-05
 DIIS Error             TolErr          ....  5.000e-07


Diagonalization of the overlap matrix:
Smallest eigenvalue                        ... 5.564e-06
Time for diagonalization                   ...    0.079 sec
Threshold for overlap eigenvalues          ... 1.000e-08
Number of eigenvalues below threshold      ... 0
Time for construction of square roots      ...    0.054 sec
Total time needed                          ...    0.135 sec

-------------------
DFT GRID GENERATION
-------------------

General Integration Accuracy     IntAcc      ...  4.340
Radial Grid Type                 RadialGrid  ... Gauss-Chebyshev
Angular Grid (max. acc.)         AngularGrid ... Lebedev-110
Angular grid pruning method      GridPruning ... 3 (G Style)
Weight generation scheme         WeightScheme... Becke
Basis function cutoff            BFCut       ...    1.0000e-11
Integration weight cutoff        WCut        ...    1.0000e-14
Grids for H and He will be reduced by one unit

# of grid points (after initial pruning)     ...  44192 (   0.0 sec)
# of grid points (after weights+screening)   ...  39581 (   0.1 sec)
nearest neighbour list constructed           ...    0.0 sec
Grid point re-assignment to atoms done       ...    0.0 sec
Grid point division into batches done        ...    0.0 sec
Reduced shell lists constructed in    0.2 sec

Total number of grid points                  ...    39581
Total number of batches                      ...      636
Average number of points per batch           ...       62
Average number of grid points per atom       ...     1099
Average number of shells per batch           ...   123.94 (45.91%)
Average number of basis functions per batch  ...   308.54 (46.33%)
Average number of large shells per batch     ...    87.18 (70.33%)
Average number of large basis fcns per batch ...   221.03 (71.63%)
Maximum spatial batch extension              ...  16.39, 20.05, 25.60 au
Average spatial batch extension              ...   0.74,  0.78,  1.16 au

Time for grid setup =    0.377 sec

------------------------------
INITIAL GUESS: MODEL POTENTIAL
------------------------------
Loading Hartree-Fock densities                     ... done
Calculating cut-offs                               ... done
Setting up the integral package                    ... done
Initializing the effective Hamiltonian             ... done
Starting the Coulomb interaction                   ... done (   0.5 sec)
Reading the grid                                   ... done
Mapping shells                                     ... done
Starting the XC term evaluation                    ... done (   0.5 sec)
  promolecular density results
     # of electrons  =    127.988258409
     EX              =   -100.225573471
     EC              =     -4.263981738
     EX+EC           =   -104.489555208
Transforming the Hamiltonian                       ... done (   0.0 sec)
Diagonalizing the Hamiltonian                      ... done (   0.1 sec)
Back transforming the eigenvectors                 ... done (   0.0 sec)
Now organizing SCF variables                       ... done
                      ------------------
                      INITIAL GUESS DONE (   1.7 sec)
                      ------------------

--------------------
CPCM SOLVATION MODEL
--------------------
CPCM parameters:
  Epsilon                                         ...       3.0000
  Refrac                                          ...       1.3300
  Rsolv                                           ...       1.3000
  Surface type                                    ...    GEPOL SES
  Epsilon function type                           ...         CPCM
Radii:
 Radius for C  used is    3.7795 Bohr (=   2.0000 Ang.)
 Radius for H  used is    2.4566 Bohr (=   1.3000 Ang.)
 Radius for N  used is    3.4582 Bohr (=   1.8300 Ang.)
Calculating surface                               ...        done! (  0.1s)
GEPOL surface points                              ...         1103
GEPOL Volume                                      ...    2066.1947
GEPOL Surface-area                                ...    1038.6476
Calculating surface distance matrix               ...        done! (  0.0s)
Performing Cholesky decomposition & store         ...        done! (  0.0s)
Overall time for CPCM initialization              ...                 0.1s
--------------
SCF ITERATIONS
--------------
ITER       Energy         Delta-E        Max-DP      RMS-DP      [F,P]     Damp
               ***  Starting incremental Fock matrix formation  ***
  0   -729.2602588324   0.000000000000 0.04605113  0.00066704  0.1805421 0.7000
  1   -729.4397706903  -0.179511857927 0.03520056  0.00053066  0.1079606 0.7000
                               ***Turning on DIIS***
  2   -729.5309470412  -0.091176350892 0.07939783  0.00119338  0.0548148 0.0000
  3   -729.6799560562  -0.149009014996 0.01517479  0.00027448  0.0424859 0.0000
  4   -729.7050976105  -0.025141554242 0.00942293  0.00013473  0.0082707 0.0000
  5   -729.7065268101  -0.001429199653 0.00806486  0.00006666  0.0049406 0.0000
  6   -729.7070896151  -0.000562804938 0.00680283  0.00005010  0.0021514 0.0000
  7   -729.7073840217  -0.000294406681 0.00474941  0.00003761  0.0014231 0.0000
  8   -729.7075387108  -0.000154689026 0.00658581  0.00005970  0.0009006 0.0000
                      *** Initiating the SOSCF procedure ***
                           *** Shutting down DIIS ***
                      *** Re-Reading the Fockian *** 
                      *** Removing any level shift *** 
ITER      Energy       Delta-E        Grad      Rot      Max-DP    RMS-DP
  9   -729.70766858  -0.0001298713  0.000877  0.000877  0.002852  0.000024
               *** Restarting incremental Fock matrix formation ***
 10   -729.70769871  -0.0000301260  0.001026  0.005456  0.003035  0.000023
 11   -729.70772449  -0.0000257826  0.001045  0.277541  0.205810  0.001242
 12   -729.70797230  -0.0002478119  0.004634  0.118749  0.114365  0.000568
 13   -729.70842146  -0.0004491529  0.002497  0.073310  0.066675  0.000346
 14   -729.70885646  -0.0004350016  0.002534  0.323463  0.425026  0.001701
 15   -729.70680299   0.0020534647  0.006937  0.266753  0.366727  0.001432
 16   -729.70926403  -0.0024610336  0.000686  0.032019  0.035943  0.000162
 17   -729.70937449  -0.0001104597  0.000723  0.042441  0.050880  0.000225
 18   -729.70940992  -0.0000354360  0.000248  0.011489  0.014951  0.000063
 19   -729.70941945  -0.0000095312  0.000140  0.002506  0.003002  0.000013
 20   -729.70942023  -0.0000007748  0.000075  0.001286  0.001436  0.000007
 21   -729.70942052  -0.0000002945  0.000029  0.000269  0.000174  0.000002
 22   -729.70942055  -0.0000000325  0.000010  0.000222  0.000279  0.000001
 23   -729.70942057  -0.0000000153  0.000007  0.000048  0.000062  0.000000
                  ***Gradient check signals convergence***
              ***Rediagonalizing the Fockian in SOSCF/NRSCF***

               *****************************************************
               *                     SUCCESS                       *
               *           SCF CONVERGED AFTER  24 CYCLES          *
               *****************************************************

Setting up the final grid:

General Integration Accuracy     IntAcc      ...  4.670
Radial Grid Type                 RadialGrid  ... Gauss-Chebyshev
Angular Grid (max. acc.)         AngularGrid ... Lebedev-302
Angular grid pruning method      GridPruning ... 3 (G Style)
Weight generation scheme         WeightScheme... Becke
Basis function cutoff            BFCut       ...    1.0000e-11
Integration weight cutoff        WCut        ...    1.0000e-14
Grids for H and He will be reduced by one unit

# of grid points (after initial pruning)     ... 172908 (   0.0 sec)
# of grid points (after weights+screening)   ... 151814 (   0.4 sec)
nearest neighbour list constructed           ...    0.0 sec
Grid point re-assignment to atoms done       ...    0.0 sec
Grid point division into batches done        ...    0.5 sec
Reduced shell lists constructed in    1.0 sec

Total number of grid points                  ...   151814
Total number of batches                      ...     2392
Average number of points per batch           ...       63
Average number of grid points per atom       ...     4217
Average number of shells per batch           ...   113.25 (41.95%)
Average number of basis functions per batch  ...   280.45 (42.11%)
Average number of large shells per batch     ...    78.22 (69.07%)
Average number of large basis fcns per batch ...   196.68 (70.13%)
Maximum spatial batch extension              ...  14.32, 15.22, 21.16 au
Average spatial batch extension              ...   0.51,  0.52,  0.63 au

Final grid set up in    1.6 sec
Final integration                            ... done (   1.9 sec)
Change in XC energy                          ...     0.002365874
Integrated number of electrons               ...   128.000224592
Previous integrated no of electrons          ...   128.007734360

----------------
TOTAL SCF ENERGY
----------------

Total Energy       :         -729.70705470 Eh          -19856.33844 eV

Components:
Nuclear Repulsion  :         1223.86930165 Eh           33303.17680 eV
Electronic Energy  :        -1953.57635635 Eh          -53159.51523 eV
One Electron Energy:        -3415.26101182 Eh          -92933.97680 eV
Two Electron Energy:         1461.68465546 Eh           39774.46157 eV
CPCM Dielectric    :           -0.01131646 Eh              -0.30794 eV

Virial components:
Potential Energy   :        -1455.55855159 Eh          -39607.76181 eV
Kinetic Energy     :          725.85149689 Eh           19751.42337 eV
Virial Ratio       :            2.00531177


DFT components:
N(Alpha)           :       64.000112295874 electrons
N(Beta)            :       64.000112295874 electrons
N(Total)           :      128.000224591749 electrons
E(XC)              :      -73.464532318972 Eh       
DFET-embed. en.    :        0.000000000000 Eh       
CPCM Solvation Model Properties:
Surface-charge          :           -0.04004929
Charge-correction       :           -0.00003364 Eh              -0.00092 eV
Free-energy (cav+disp)  :            0.00524023 Eh               0.14259 eV
Corrected G(solv)       :         -729.70184811 Eh          -19856.19676 eV

---------------
SCF CONVERGENCE
---------------

  Last Energy change         ...   -3.8422e-09  Tolerance :   1.0000e-08
  Last MAX-Density change    ...    3.9776e-05  Tolerance :   1.0000e-07
  Last RMS-Density change    ...    2.1148e-07  Tolerance :   5.0000e-09
  Last Orbital Gradient      ...    1.5711e-06  Tolerance :   1.0000e-05
  Last Orbital Rotation      ...    3.0308e-05  Tolerance :   1.0000e-05

             **** THE GBW FILE WAS UPDATED (p-Me-DMBI.gbw) ****
             **** DENSITY FILE WAS UPDATED (p-Me-DMBI.scfp) ****
             **** ENERGY FILE WAS UPDATED (p-Me-DMBI.en.tmp) ****
             **** THE GBW FILE WAS UPDATED (p-Me-DMBI.gbw) ****
             **** DENSITY FILE WAS UPDATED (p-Me-DMBI.scfp) ****
----------------
ORBITAL ENERGIES
----------------

  NO   OCC          E(Eh)            E(eV) 
   0   2.0000     -14.475381      -393.8951 
   1   2.0000     -14.469271      -393.7289 
   2   2.0000     -10.355344      -281.7832 
   3   2.0000     -10.350570      -281.6533 
   4   2.0000     -10.326853      -281.0080 
   5   2.0000     -10.320236      -280.8279 
   6   2.0000     -10.315794      -280.7070 
   7   2.0000     -10.311445      -280.5887 
   8   2.0000     -10.286425      -279.9078 
   9   2.0000     -10.277528      -279.6657 
  10   2.0000     -10.276711      -279.6435 
  11   2.0000     -10.276199      -279.6296 
  12   2.0000     -10.276150      -279.6283 
  13   2.0000     -10.275151      -279.6011 
  14   2.0000     -10.271486      -279.5013 
  15   2.0000     -10.270298      -279.4690 
  16   2.0000     -10.270077      -279.4630 
  17   2.0000     -10.266303      -279.3603 
  18   2.0000      -1.116792       -30.3894 
  19   2.0000      -1.029972       -28.0270 
  20   2.0000      -0.981120       -26.6976 
  21   2.0000      -0.964076       -26.2339 
  22   2.0000      -0.912755       -24.8373 
  23   2.0000      -0.874771       -23.8037 
  24   2.0000      -0.866269       -23.5724 
  25   2.0000      -0.857532       -23.3346 
  26   2.0000      -0.853088       -23.2137 
  27   2.0000      -0.802255       -21.8305 
  28   2.0000      -0.795826       -21.6555 
  29   2.0000      -0.762987       -20.7619 
  30   2.0000      -0.719025       -19.5657 
  31   2.0000      -0.704458       -19.1693 
  32   2.0000      -0.701310       -19.0836 
  33   2.0000      -0.687182       -18.6992 
  34   2.0000      -0.634040       -17.2531 
  35   2.0000      -0.620644       -16.8886 
  36   2.0000      -0.608524       -16.5588 
  37   2.0000      -0.572748       -15.5853 
  38   2.0000      -0.569242       -15.4899 
  39   2.0000      -0.561637       -15.2829 
  40   2.0000      -0.550647       -14.9839 
  41   2.0000      -0.547574       -14.9003 
  42   2.0000      -0.542552       -14.7636 
  43   2.0000      -0.541852       -14.7446 
  44   2.0000      -0.537212       -14.6183 
  45   2.0000      -0.520216       -14.1558 
  46   2.0000      -0.516257       -14.0481 
  47   2.0000      -0.510667       -13.8960 
  48   2.0000      -0.491648       -13.3784 
  49   2.0000      -0.490974       -13.3601 
  50   2.0000      -0.484509       -13.1842 
  51   2.0000      -0.472419       -12.8552 
  52   2.0000      -0.464883       -12.6501 
  53   2.0000      -0.458637       -12.4802 
  54   2.0000      -0.441529       -12.0146 
  55   2.0000      -0.436385       -11.8746 
  56   2.0000      -0.429704       -11.6928 
  57   2.0000      -0.424859       -11.5610 
  58   2.0000      -0.385845       -10.4994 
  59   2.0000      -0.359976        -9.7954 
  60   2.0000      -0.341117        -9.2823 
  61   2.0000      -0.314647        -8.5620 
  62   2.0000      -0.306241        -8.3332 
  63   2.0000      -0.184397        -5.0177 
  64   0.0000       0.010715         0.2916 
  65   0.0000       0.056933         1.5492 
  66   0.0000       0.062489         1.7004 
  67   0.0000       0.086147         2.3442 
  68   0.0000       0.088824         2.4170 
  69   0.0000       0.118020         3.2115 
  70   0.0000       0.128512         3.4970 
  71   0.0000       0.129953         3.5362 
  72   0.0000       0.138327         3.7641 
  73   0.0000       0.149453         4.0668 
  74   0.0000       0.157550         4.2871 
  75   0.0000       0.162550         4.4232 
  76   0.0000       0.168532         4.5860 
  77   0.0000       0.184225         5.0130 
  78   0.0000       0.189360         5.1527 
  79   0.0000       0.191049         5.1987 
  80   0.0000       0.194167         5.2835 
  81   0.0000       0.197456         5.3731 
  82   0.0000       0.204242         5.5577 
  83   0.0000       0.207182         5.6377 
  84   0.0000       0.209855         5.7105 
  85   0.0000       0.211653         5.7594 
  86   0.0000       0.215196         5.8558 
  87   0.0000       0.229215         6.2373 
  88   0.0000       0.231238         6.2923 
  89   0.0000       0.237993         6.4761 
  90   0.0000       0.240162         6.5351 
  91   0.0000       0.247833         6.7439 
  92   0.0000       0.248378         6.7587 
  93   0.0000       0.258406         7.0316 
  94   0.0000       0.259967         7.0741 
  95   0.0000       0.273358         7.4385 
  96   0.0000       0.275628         7.5002 
  97   0.0000       0.276530         7.5248 
  98   0.0000       0.280653         7.6370 
  99   0.0000       0.292178         7.9506 
 100   0.0000       0.293843         7.9959 
 101   0.0000       0.300237         8.1699 
 102   0.0000       0.309588         8.4243 
 103   0.0000       0.310010         8.4358 
 104   0.0000       0.311311         8.4712 
 105   0.0000       0.327661         8.9161 
 106   0.0000       0.333849         9.0845 
 107   0.0000       0.335281         9.1235 
 108   0.0000       0.341670         9.2973 
 109   0.0000       0.343489         9.3468 
 110   0.0000       0.356883         9.7113 
 111   0.0000       0.357248         9.7212 
 112   0.0000       0.360591         9.8122 
 113   0.0000       0.374028        10.1778 
 114   0.0000       0.375503        10.2179 
 115   0.0000       0.379468        10.3258 
 116   0.0000       0.390616        10.6292 
 117   0.0000       0.396001        10.7757 
 118   0.0000       0.398060        10.8318 
 119   0.0000       0.405469        11.0334 
 120   0.0000       0.415228        11.2989 
 121   0.0000       0.420973        11.4553 
 122   0.0000       0.421384        11.4664 
 123   0.0000       0.426432        11.6038 
 124   0.0000       0.431925        11.7533 
 125   0.0000       0.435230        11.8432 
 126   0.0000       0.436194        11.8694 
 127   0.0000       0.439993        11.9728 
 128   0.0000       0.454129        12.3575 
 129   0.0000       0.456526        12.4227 
 130   0.0000       0.457509        12.4495 
 131   0.0000       0.462946        12.5974 
 132   0.0000       0.468747        12.7552 
 133   0.0000       0.472436        12.8556 
 134   0.0000       0.480488        13.0747 
 135   0.0000       0.484967        13.1966 
 136   0.0000       0.490387        13.3441 
 137   0.0000       0.497483        13.5372 
 138   0.0000       0.499431        13.5902 
 139   0.0000       0.501414        13.6442 
 140   0.0000       0.507459        13.8086 
 141   0.0000       0.514365        13.9966 
 142   0.0000       0.518028        14.0963 
 143   0.0000       0.518896        14.1199 
 144   0.0000       0.531191        14.4544 
 145   0.0000       0.532735        14.4965 
 146   0.0000       0.539158        14.6712 
 147   0.0000       0.539983        14.6937 
 148   0.0000       0.542443        14.7606 
 149   0.0000       0.545636        14.8475 
 150   0.0000       0.558494        15.1974 
 151   0.0000       0.559536        15.2257 
 152   0.0000       0.571601        15.5541 
 153   0.0000       0.576876        15.6976 
 154   0.0000       0.582047        15.8383 
 155   0.0000       0.585094        15.9212 
 156   0.0000       0.588737        16.0203 
 157   0.0000       0.590156        16.0590 
 158   0.0000       0.596482        16.2311 
 159   0.0000       0.598943        16.2981 
 160   0.0000       0.604257        16.4427 
 161   0.0000       0.616108        16.7652 
 162   0.0000       0.617561        16.8047 
 163   0.0000       0.621617        16.9151 
 164   0.0000       0.631068        17.1722 
 165   0.0000       0.636256        17.3134 
 166   0.0000       0.647249        17.6125 
 167   0.0000       0.656067        17.8525 
 168   0.0000       0.656694        17.8696 
 169   0.0000       0.669924        18.2296 
 170   0.0000       0.673144        18.3172 
 171   0.0000       0.682469        18.5709 
 172   0.0000       0.693090        18.8599 
 173   0.0000       0.697870        18.9900 
 174   0.0000       0.708117        19.2688 
 175   0.0000       0.714745        19.4492 
 176   0.0000       0.723386        19.6843 
 177   0.0000       0.729051        19.8385 
 178   0.0000       0.742492        20.2042 
 179   0.0000       0.745705        20.2917 
 180   0.0000       0.748159        20.3585 
 181   0.0000       0.766170        20.8485 
 182   0.0000       0.770619        20.9696 
 183   0.0000       0.771540        20.9947 
 184   0.0000       0.786893        21.4125 
 185   0.0000       0.790356        21.5067 
 186   0.0000       0.792120        21.5547 
 187   0.0000       0.797785        21.7088 
 188   0.0000       0.807464        21.9722 
 189   0.0000       0.816846        22.2275 
 190   0.0000       0.822903        22.3923 
 191   0.0000       0.825317        22.4580 
 192   0.0000       0.827874        22.5276 
 193   0.0000       0.839834        22.8530 
 194   0.0000       0.841763        22.9055 
 195   0.0000       0.847931        23.0734 
 196   0.0000       0.850516        23.1437 
 197   0.0000       0.878109        23.8946 
 198   0.0000       0.879498        23.9324 
 199   0.0000       0.884126        24.0583 
 200   0.0000       0.889932        24.2163 
 201   0.0000       0.903047        24.5732 
 202   0.0000       0.904242        24.6057 
 203   0.0000       0.916837        24.9484 
 204   0.0000       0.927564        25.2403 
 205   0.0000       0.930408        25.3177 
 206   0.0000       0.933704        25.4074 
 207   0.0000       0.936237        25.4763 
 208   0.0000       0.943488        25.6736 
 209   0.0000       0.955021        25.9875 
 210   0.0000       0.962470        26.1901 
 211   0.0000       0.964759        26.2524 
 212   0.0000       0.965977        26.2856 
 213   0.0000       0.974401        26.5148 
 214   0.0000       1.010000        27.4835 
 215   0.0000       1.013150        27.5692 
 216   0.0000       1.019564        27.7438 
 217   0.0000       1.022515        27.8240 
 218   0.0000       1.032408        28.0932 
 219   0.0000       1.036744        28.2113 
 220   0.0000       1.049157        28.5490 
 221   0.0000       1.063485        28.9389 
 222   0.0000       1.066108        29.0103 
 223   0.0000       1.085590        29.5404 
 224   0.0000       1.093664        29.7601 
 225   0.0000       1.104265        30.0486 
 226   0.0000       1.105870        30.0923 
 227   0.0000       1.128240        30.7010 
 228   0.0000       1.129582        30.7375 
 229   0.0000       1.139656        31.0116 
 230   0.0000       1.142160        31.0798 
 231   0.0000       1.151613        31.3370 
 232   0.0000       1.161866        31.6160 
 233   0.0000       1.163712        31.6662 
 234   0.0000       1.184619        32.2351 
 235   0.0000       1.185352        32.2551 
 236   0.0000       1.192126        32.4394 
 237   0.0000       1.212370        32.9903 
 238   0.0000       1.214858        33.0580 
 239   0.0000       1.226634        33.3784 
 240   0.0000       1.240688        33.7608 
 241   0.0000       1.254544        34.1379 
 242   0.0000       1.264289        34.4030 
 243   0.0000       1.267807        34.4988 
 244   0.0000       1.285876        34.9905 
 245   0.0000       1.293365        35.1943 
 246   0.0000       1.298823        35.3428 
 247   0.0000       1.308378        35.6028 
 248   0.0000       1.315938        35.8085 
 249   0.0000       1.332603        36.2620 
 250   0.0000       1.335885        36.3513 
 251   0.0000       1.348311        36.6894 
 252   0.0000       1.353965        36.8433 
 253   0.0000       1.356119        36.9019 
 254   0.0000       1.366156        37.1750 
 255   0.0000       1.374413        37.3997 
 256   0.0000       1.387530        37.7566 
 257   0.0000       1.392368        37.8883 
 258   0.0000       1.413040        38.4508 
 259   0.0000       1.413353        38.4593 
 260   0.0000       1.422546        38.7094 
 261   0.0000       1.433255        39.0008 
 262   0.0000       1.440589        39.2004 
 263   0.0000       1.448693        39.4209 
 264   0.0000       1.460575        39.7443 
 265   0.0000       1.480571        40.2884 
 266   0.0000       1.498781        40.7839 
 267   0.0000       1.502512        40.8854 
 268   0.0000       1.513162        41.1752 
 269   0.0000       1.515813        41.2474 
 270   0.0000       1.519275        41.3416 
 271   0.0000       1.544174        42.0191 
 272   0.0000       1.546127        42.0723 
 273   0.0000       1.561988        42.5039 
 274   0.0000       1.575006        42.8581 
 275   0.0000       1.583674        43.0940 
 276   0.0000       1.588767        43.2326 
 277   0.0000       1.593783        43.3691 
 278   0.0000       1.600817        43.5604 
 279   0.0000       1.605788        43.6957 
 280   0.0000       1.614224        43.9253 
 281   0.0000       1.618677        44.0464 
 282   0.0000       1.619526        44.0695 
 283   0.0000       1.624376        44.2015 
 284   0.0000       1.629282        44.3350 
 285   0.0000       1.636459        44.5303 
 286   0.0000       1.644883        44.7595 
 287   0.0000       1.645979        44.7894 
 288   0.0000       1.651148        44.9300 
 289   0.0000       1.664628        45.2968 
 290   0.0000       1.664989        45.3067 
 291   0.0000       1.671778        45.4914 
 292   0.0000       1.680946        45.7409 
 293   0.0000       1.697152        46.1818 
 294   0.0000       1.704255        46.3751 
 295   0.0000       1.709491        46.5176 
 296   0.0000       1.715813        46.6897 
 297   0.0000       1.729740        47.0686 
 298   0.0000       1.731813        47.1250 
 299   0.0000       1.739189        47.3257 
 300   0.0000       1.748051        47.5669 
 301   0.0000       1.759256        47.8718 
 302   0.0000       1.766911        48.0801 
 303   0.0000       1.767257        48.0895 
 304   0.0000       1.772880        48.2425 
 305   0.0000       1.787691        48.6455 
 306   0.0000       1.794711        48.8366 
 307   0.0000       1.800678        48.9989 
 308   0.0000       1.801502        49.0214 
 309   0.0000       1.809491        49.2388 
 310   0.0000       1.821067        49.5538 
 311   0.0000       1.837928        50.0126 
 312   0.0000       1.840141        50.0728 
 313   0.0000       1.842968        50.1497 
 314   0.0000       1.856717        50.5238 
 315   0.0000       1.872659        50.9577 
 316   0.0000       1.884181        51.2712 
 317   0.0000       1.886412        51.3319 
 318   0.0000       1.895100        51.5683 
 319   0.0000       1.914601        52.0989 
 320   0.0000       1.925933        52.4073 
 321   0.0000       1.945313        52.9346 
 322   0.0000       1.961677        53.3799 
 323   0.0000       1.966247        53.5043 
 324   0.0000       1.974959        53.7414 
 325   0.0000       1.977946        53.8227 
 326   0.0000       1.984273        53.9948 
 327   0.0000       2.015824        54.8534 
 328   0.0000       2.019544        54.9546 
 329   0.0000       2.039108        55.4870 
 330   0.0000       2.058415        56.0123 
 331   0.0000       2.070257        56.3346 
 332   0.0000       2.071645        56.3723 
 333   0.0000       2.091145        56.9030 
 334   0.0000       2.096380        57.0454 
 335   0.0000       2.102930        57.2236 
 336   0.0000       2.113436        57.5095 
 337   0.0000       2.123797        57.7914 
 338   0.0000       2.136171        58.1282 
 339   0.0000       2.157841        58.7178 
 340   0.0000       2.158283        58.7299 
 341   0.0000       2.172359        59.1129 
 342   0.0000       2.174544        59.1723 
 343   0.0000       2.181355        59.3577 
 344   0.0000       2.182559        59.3905 
 345   0.0000       2.194419        59.7132 
 346   0.0000       2.211530        60.1788 
 347   0.0000       2.217920        60.3527 
 348   0.0000       2.242509        61.0218 
 349   0.0000       2.246463        61.1294 
 350   0.0000       2.258901        61.4678 
 351   0.0000       2.275834        61.9286 
 352   0.0000       2.291803        62.3631 
 353   0.0000       2.306889        62.7736 
 354   0.0000       2.308787        62.8253 
 355   0.0000       2.315783        63.0157 
 356   0.0000       2.317677        63.0672 
 357   0.0000       2.320645        63.1480 
 358   0.0000       2.340254        63.6816 
 359   0.0000       2.350407        63.9578 
 360   0.0000       2.352576        64.0168 
 361   0.0000       2.371023        64.5188 
 362   0.0000       2.375587        64.6430 
 363   0.0000       2.392625        65.1066 
 364   0.0000       2.397283        65.2334 
 365   0.0000       2.402817        65.3840 
 366   0.0000       2.411937        65.6321 
 367   0.0000       2.422204        65.9115 
 368   0.0000       2.430990        66.1506 
 369   0.0000       2.436723        66.3066 
 370   0.0000       2.455563        66.8193 
 371   0.0000       2.461327        66.9761 
 372   0.0000       2.477826        67.4251 
 373   0.0000       2.482242        67.5452 
 374   0.0000       2.486740        67.6676 
 375   0.0000       2.499782        68.0225 
 376   0.0000       2.515538        68.4513 
 377   0.0000       2.538866        69.0861 
 378   0.0000       2.541762        69.1649 
 379   0.0000       2.551680        69.4347 
 380   0.0000       2.555130        69.5286 
 381   0.0000       2.558622        69.6237 
 382   0.0000       2.585655        70.3593 
 383   0.0000       2.590792        70.4990 
 384   0.0000       2.598933        70.7206 
 385   0.0000       2.610112        71.0248 
 386   0.0000       2.626177        71.4619 
 387   0.0000       2.633589        71.6636 
 388   0.0000       2.637048        71.7577 
 389   0.0000       2.641261        71.8724 
 390   0.0000       2.658844        72.3508 
 391   0.0000       2.664473        72.5040 
 392   0.0000       2.669102        72.6300 
 393   0.0000       2.675519        72.8046 
 394   0.0000       2.678599        72.8884 
 395   0.0000       2.679070        72.9012 
 396   0.0000       2.700486        73.4839 
 397   0.0000       2.704147        73.5836 
 398   0.0000       2.713045        73.8257 
 399   0.0000       2.730122        74.2904 
 400   0.0000       2.735728        74.4429 
 401   0.0000       2.739581        74.5478 
 402   0.0000       2.744482        74.6812 
 403   0.0000       2.758973        75.0755 
 404   0.0000       2.759209        75.0819 
 405   0.0000       2.769796        75.3700 
 406   0.0000       2.785086        75.7861 
 407   0.0000       2.788999        75.8925 
 408   0.0000       2.790439        75.9317 
 409   0.0000       2.795185        76.0608 
 410   0.0000       2.800263        76.1990 
 411   0.0000       2.816333        76.6363 
 412   0.0000       2.817353        76.6641 
 413   0.0000       2.826110        76.9024 
 414   0.0000       2.826901        76.9239 
 415   0.0000       2.834127        77.1205 
 416   0.0000       2.856829        77.7383 
 417   0.0000       2.866228        77.9940 
 418   0.0000       2.868562        78.0575 
 419   0.0000       2.873267        78.1856 
 420   0.0000       2.874279        78.2131 
 421   0.0000       2.887861        78.5827 
 422   0.0000       2.902437        78.9793 
 423   0.0000       2.904351        79.0314 
 424   0.0000       2.909735        79.1779 
 425   0.0000       2.913355        79.2764 
 426   0.0000       2.924047        79.5674 
 427   0.0000       2.933753        79.8315 
 428   0.0000       2.950109        80.2765 
 429   0.0000       2.956825        80.4593 
 430   0.0000       2.970751        80.8382 
 431   0.0000       2.976790        81.0026 
 432   0.0000       2.995265        81.5053 
 433   0.0000       2.999485        81.6201 
 434   0.0000       3.005941        81.7958 
 435   0.0000       3.008655        81.8697 
 436   0.0000       3.029055        82.4248 
 437   0.0000       3.034674        82.5777 
 438   0.0000       3.037385        82.6515 
 439   0.0000       3.048999        82.9675 
 440   0.0000       3.059107        83.2425 
 441   0.0000       3.064554        83.3908 
 442   0.0000       3.089985        84.0828 
 443   0.0000       3.095169        84.2238 
 444   0.0000       3.107597        84.5620 
 445   0.0000       3.110153        84.6316 
 446   0.0000       3.120746        84.9198 
 447   0.0000       3.122964        84.9802 
 448   0.0000       3.124767        85.0292 
 449   0.0000       3.144455        85.5650 
 450   0.0000       3.149432        85.7004 
 451   0.0000       3.158862        85.9570 
 452   0.0000       3.164556        86.1119 
 453   0.0000       3.166497        86.1648 
 454   0.0000       3.185063        86.6700 
 455   0.0000       3.190180        86.8092 
 456   0.0000       3.206738        87.2598 
 457   0.0000       3.209255        87.3283 
 458   0.0000       3.216682        87.5304 
 459   0.0000       3.220767        87.6415 
 460   0.0000       3.225146        87.7607 
 461   0.0000       3.240025        88.1656 
 462   0.0000       3.246860        88.3515 
 463   0.0000       3.250288        88.4448 
 464   0.0000       3.251422        88.4757 
 465   0.0000       3.258761        88.6754 
 466   0.0000       3.260586        88.7251 
 467   0.0000       3.265192        88.8504 
 468   0.0000       3.274383        89.1005 
 469   0.0000       3.278250        89.2057 
 470   0.0000       3.287010        89.4441 
 471   0.0000       3.303518        89.8933 
 472   0.0000       3.324054        90.4521 
 473   0.0000       3.324330        90.4596 
 474   0.0000       3.332437        90.6802 
 475   0.0000       3.334465        90.7354 
 476   0.0000       3.345219        91.0280 
 477   0.0000       3.346141        91.0531 
 478   0.0000       3.355705        91.3134 
 479   0.0000       3.358714        91.3953 
 480   0.0000       3.360038        91.4313 
 481   0.0000       3.380199        91.9799 
 482   0.0000       3.382968        92.0552 
 483   0.0000       3.385009        92.1108 
 484   0.0000       3.390886        92.2707 
 485   0.0000       3.391247        92.2805 
 486   0.0000       3.400876        92.5425 
 487   0.0000       3.423533        93.1591 
 488   0.0000       3.428856        93.3039 
 489   0.0000       3.433078        93.4188 
 490   0.0000       3.436341        93.5076 
 491   0.0000       3.439022        93.5805 
 492   0.0000       3.449280        93.8597 
 493   0.0000       3.449520        93.8662 
 494   0.0000       3.452947        93.9595 
 495   0.0000       3.471228        94.4569 
 496   0.0000       3.474440        94.5443 
 497   0.0000       3.484192        94.8097 
 498   0.0000       3.492003        95.0222 
 499   0.0000       3.493384        95.0598 
 500   0.0000       3.501106        95.2699 
 501   0.0000       3.507708        95.4496 
 502   0.0000       3.513239        95.6001 
 503   0.0000       3.522759        95.8591 
 504   0.0000       3.531021        96.0840 
 505   0.0000       3.534859        96.1884 
 506   0.0000       3.538182        96.2788 
 507   0.0000       3.546623        96.5085 
 508   0.0000       3.548776        96.5671 
 509   0.0000       3.564849        97.0045 
 510   0.0000       3.574374        97.2637 
 511   0.0000       3.583643        97.5159 
 512   0.0000       3.594037        97.7987 
 513   0.0000       3.601606        98.0047 
 514   0.0000       3.608792        98.2002 
 515   0.0000       3.612968        98.3139 
 516   0.0000       3.626284        98.6762 
 517   0.0000       3.630422        98.7888 
 518   0.0000       3.639278        99.0298 
 519   0.0000       3.647111        99.2429 
 520   0.0000       3.651331        99.3578 
 521   0.0000       3.662279        99.6557 
 522   0.0000       3.676742       100.0492 
 523   0.0000       3.686405       100.3122 
 524   0.0000       3.696705       100.5925 
 525   0.0000       3.706959       100.8715 
 526   0.0000       3.718062       101.1736 
 527   0.0000       3.720504       101.2401 
 528   0.0000       3.729740       101.4914 
 529   0.0000       3.742019       101.8255 
 530   0.0000       3.758774       102.2814 
 531   0.0000       3.775016       102.7234 
 532   0.0000       3.814466       103.7969 
 533   0.0000       3.816872       103.8624 
 534   0.0000       3.845113       104.6308 
 535   0.0000       3.848433       104.7212 
 536   0.0000       3.863449       105.1298 
 537   0.0000       3.866047       105.2005 
 538   0.0000       3.872525       105.3768 
 539   0.0000       3.885284       105.7240 
 540   0.0000       3.894894       105.9855 
 541   0.0000       3.932142       106.9990 
 542   0.0000       3.946471       107.3889 
 543   0.0000       3.952130       107.5429 
 544   0.0000       3.966511       107.9342 
 545   0.0000       4.000403       108.8565 
 546   0.0000       4.007408       109.0471 
 547   0.0000       4.041459       109.9737 
 548   0.0000       4.050279       110.2137 
 549   0.0000       4.058506       110.4375 
 550   0.0000       4.066154       110.6457 
 551   0.0000       4.067110       110.6717 
 552   0.0000       4.109922       111.8367 
 553   0.0000       4.121119       112.1413 
 554   0.0000       4.135224       112.5252 
 555   0.0000       4.148654       112.8906 
 556   0.0000       4.155573       113.0789 
 557   0.0000       4.177391       113.6726 
 558   0.0000       4.180213       113.7494 
 559   0.0000       4.191168       114.0475 
 560   0.0000       4.206897       114.4755 
 561   0.0000       4.209044       114.5339 
 562   0.0000       4.224211       114.9466 
 563   0.0000       4.242822       115.4531 
 564   0.0000       4.247283       115.5744 
 565   0.0000       4.259658       115.9112 
 566   0.0000       4.266655       116.1016 
 567   0.0000       4.272798       116.2687 
 568   0.0000       4.285802       116.6226 
 569   0.0000       4.296337       116.9093 
 570   0.0000       4.305239       117.1515 
 571   0.0000       4.307154       117.2036 
 572   0.0000       4.319759       117.5466 
 573   0.0000       4.326199       117.7219 
 574   0.0000       4.338498       118.0565 
 575   0.0000       4.348834       118.3378 
 576   0.0000       4.363769       118.7442 
 577   0.0000       4.378307       119.1398 
 578   0.0000       4.383507       119.2813 
 579   0.0000       4.402934       119.8099 
 580   0.0000       4.417167       120.1972 
 581   0.0000       4.427312       120.4733 
 582   0.0000       4.449851       121.0866 
 583   0.0000       4.471468       121.6748 
 584   0.0000       4.487854       122.1207 
 585   0.0000       4.500738       122.4713 
[...]
      f-3     :     0.009975
  3 H s       :     0.795072  s :     0.795072
      pz      :     0.013013  p :     0.057618
      px      :     0.032264
      py      :     0.012340
  4 C s       :     2.754623  s :     2.754623
      pz      :     0.900530  p :     2.930185
      px      :     1.061092
      py      :     0.968563
      dz2     :     0.027260  d :     0.413884
      dxz     :     0.112976
      dyz     :     0.039543
      dx2y2   :     0.111708
      dxy     :     0.122396
      f0      :     0.003957  f :     0.045161
      f+1     :     0.006860
      f-1     :     0.002161
      f+2     :     0.005160
      f-2     :     0.006852
      f+3     :     0.010260
      f-3     :     0.009913
  5 H s       :     0.798225  s :     0.798225
      pz      :     0.017277  p :     0.060464
      px      :     0.021838
      py      :     0.021349
  6 C s       :     2.702374  s :     2.702374
      pz      :     0.842055  p :     2.794550
      px      :     1.007906
      py      :     0.944589
      dz2     :     0.073199  d :     0.685532
      dxz     :     0.125512
      dyz     :     0.103183
      dx2y2   :     0.217072
      dxy     :     0.166565
      f0      :     0.005800  f :     0.080374
      f+1     :     0.009507
      f-1     :     0.005940
      f+2     :     0.008073
      f-2     :     0.013192
      f+3     :     0.018673
      f-3     :     0.019187
  7 H s       :     0.792016  s :     0.792016
      pz      :     0.020300  p :     0.061676
      px      :     0.012603
      py      :     0.028773
  8 C s       :     2.696437  s :     2.696437
      pz      :     0.993983  p :     2.860494
      px      :     0.846966
      py      :     1.019545
      dz2     :     0.060040  d :     0.543252
      dxz     :     0.096357
      dyz     :     0.070748
      dx2y2   :     0.168616
      dxy     :     0.147491
      f0      :     0.006060  f :     0.070005
      f+1     :     0.007307
      f-1     :     0.005028
      f+2     :     0.010488
      f-2     :     0.008705
      f+3     :     0.016469
      f-3     :     0.015950
  9 H s       :     0.789535  s :     0.789535
      pz      :     0.017685  p :     0.058657
      px      :     0.012625
      py      :     0.028347
 10 N s       :     3.042430  s :     3.042430
      pz      :     1.261739  p :     3.764806
      px      :     1.344721
      py      :     1.158345
      dz2     :     0.030258  d :     0.204394
      dxz     :     0.026198
      dyz     :     0.044486
      dx2y2   :     0.049283
      dxy     :     0.054169
      f0      :     0.001689  f :     0.016660
      f+1     :     0.001532
      f-1     :     0.002105
      f+2     :     0.001653
      f-2     :     0.002961
      f+3     :     0.003575
      f-3     :     0.003144
 11 N s       :     2.857130  s :     2.857130
      pz      :     1.195545  p :     3.508761
      px      :     1.145818
      py      :     1.167398
      dz2     :     0.029022  d :     0.335248
      dxz     :     0.061365
      dyz     :     0.043924
      dx2y2   :     0.105552
      dxy     :     0.095383
      f0      :     0.001655  f :     0.022246
      f+1     :     0.001736
      f-1     :     0.002236
      f+2     :     0.002905
      f-2     :     0.003164
      f+3     :     0.004711
      f-3     :     0.005838
 12 C s       :     2.769190  s :     2.769190
      pz      :     0.815996  p :     2.728139
      px      :     0.979629
      py      :     0.932513
      dz2     :     0.039670  d :     0.489151
      dxz     :     0.089516
      dyz     :     0.089919
      dx2y2   :     0.128370
      dxy     :     0.141675
      f0      :     0.005517  f :     0.063242
      f+1     :     0.006972
      f-1     :     0.004437
      f+2     :     0.006245
      f-2     :     0.011735
      f+3     :     0.011638
      f-3     :     0.016698
 13 C s       :     2.695171  s :     2.695171
      pz      :     1.012292  p :     2.892799
      px      :     0.968037
      py      :     0.912470
      dz2     :     0.124158  d :     0.510934
      dxz     :     0.134085
      dyz     :     0.076430
      dx2y2   :     0.099339
      dxy     :     0.076922
      f0      :     0.009033  f :     0.058341
      f+1     :     0.009794
      f-1     :     0.007011
      f+2     :     0.011646
      f-2     :     0.007157
      f+3     :     0.006256
      f-3     :     0.007444
 14 H s       :     0.760551  s :     0.760551
      pz      :     0.018016  p :     0.064415
      px      :     0.015242
      py      :     0.031157
 15 C s       :     2.753868  s :     2.753868
      pz      :     0.984453  p :     2.935120
      px      :     1.035694
      py      :     0.914974
      dz2     :     0.067678  d :     0.381111
      dxz     :     0.136345
      dyz     :     0.043546
      dx2y2   :     0.059090
      dxy     :     0.074452
      f0      :     0.008167  f :     0.043070
      f+1     :     0.006199
      f-1     :     0.005100
      f+2     :     0.008304
      f-2     :     0.003811
      f+3     :     0.004719
      f-3     :     0.006770
 16 C s       :     2.753557  s :     2.753557
      pz      :     0.979972  p :     2.905520
      px      :     1.040955
      py      :     0.884593
      dz2     :     0.070733  d :     0.389246
      dxz     :     0.138860
      dyz     :     0.045903
      dx2y2   :     0.055137
      dxy     :     0.078614
      f0      :     0.008600  f :     0.043704
      f+1     :     0.006333
      f-1     :     0.005170
      f+2     :     0.008234
      f-2     :     0.003718
      f+3     :     0.004885
      f-3     :     0.006764
 17 C s       :     2.713271  s :     2.713271
      pz      :     1.003306  p :     2.852830
      px      :     0.995560
      py      :     0.853963
      dz2     :     0.124371  d :     0.531657
      dxz     :     0.145291
      dyz     :     0.074152
      dx2y2   :     0.093361
      dxy     :     0.094482
      f0      :     0.010169  f :     0.058903
      f+1     :     0.009714
      f-1     :     0.006928
      f+2     :     0.011873
      f-2     :     0.007024
      f+3     :     0.005287
      f-3     :     0.007909
 18 C s       :     2.753274  s :     2.753274
      pz      :     0.961768  p :     2.898287
      px      :     1.045882
      py      :     0.890637
      dz2     :     0.071380  d :     0.389222
      dxz     :     0.120677
      dyz     :     0.036333
      dx2y2   :     0.071209
      dxy     :     0.089624
      f0      :     0.005985  f :     0.043659
      f+1     :     0.007460
      f-1     :     0.004306
      f+2     :     0.008464
      f-2     :     0.004703
      f+3     :     0.005249
      f-3     :     0.007492
 19 H s       :     0.780594  s :     0.780594
      pz      :     0.028355  p :     0.059175
      px      :     0.014684
      py      :     0.016136
 20 H s       :     0.785316  s :     0.785316
      pz      :     0.023047  p :     0.058991
      px      :     0.018444
      py      :     0.017499
 21 C s       :     2.753440  s :     2.753440
      pz      :     0.973661  p :     2.930404
      px      :     1.043140
      py      :     0.913604
      dz2     :     0.076026  d :     0.381073
      dxz     :     0.120771
      dyz     :     0.034945
      dx2y2   :     0.070838
      dxy     :     0.078493
      f0      :     0.006182  f :     0.043076
      f+1     :     0.007323
      f-1     :     0.004189
      f+2     :     0.008586
      f-2     :     0.004493
      f+3     :     0.005151
      f-3     :     0.007152
 22 H s       :     0.784420  s :     0.784420
      pz      :     0.028688  p :     0.058886
      px      :     0.014337
      py      :     0.015861
 23 H s       :     0.779923  s :     0.779923
      pz      :     0.024486  p :     0.059799
      px      :     0.019040
      py      :     0.016273
 24 C s       :     2.815008  s :     2.815008
      pz      :     1.071471  p :     3.165868
      px      :     1.019975
      py      :     1.074422
      dz2     :     0.035723  d :     0.245768
      dxz     :     0.064640
      dyz     :     0.030804
      dx2y2   :     0.047564
      dxy     :     0.067037
      f0      :     0.002077  f :     0.024435
      f+1     :     0.003995
      f-1     :     0.003106
      f+2     :     0.003712
      f-2     :     0.002424
      f+3     :     0.004475
      f-3     :     0.004646
 25 H s       :     0.807861  s :     0.807861
      pz      :     0.026414  p :     0.060937
      px      :     0.016182
      py      :     0.018342
 26 H s       :     0.802516  s :     0.802516
      pz      :     0.013806  p :     0.061362
      px      :     0.015264
      py      :     0.032291
 27 H s       :     0.802102  s :     0.802102
      pz      :     0.029264  p :     0.061362
      px      :     0.013045
      py      :     0.019052
 28 C s       :     2.841734  s :     2.841734
      pz      :     1.036925  p :     3.119519
      px      :     1.082544
      py      :     1.000050
      dz2     :     0.092513  d :     0.377397
      dxz     :     0.065838
      dyz     :     0.068024
      dx2y2   :     0.040264
      dxy     :     0.110757
      f0      :     0.004354  f :     0.041253
      f+1     :     0.002871
      f-1     :     0.009901
      f+2     :     0.005344
      f-2     :     0.007667
      f+3     :     0.004412
      f-3     :     0.006704
 29 H s       :     0.836796  s :     0.836796
      pz      :     0.016068  p :     0.059733
      px      :     0.022020
      py      :     0.021645
 30 H s       :     0.834575  s :     0.834575
      pz      :     0.013092  p :     0.058822
      px      :     0.029192
      py      :     0.016538
 31 H s       :     0.840291  s :     0.840291
      pz      :     0.029947  p :     0.059783
      px      :     0.017209
      py      :     0.012626
 32 C s       :     2.830957  s :     2.830957
      pz      :     1.072150  p :     3.066525
      px      :     1.082991
      py      :     0.911384
      dz2     :     0.082763  d :     0.301231
      dxz     :     0.017867
      dyz     :     0.064716
      dx2y2   :     0.065183
      dxy     :     0.070701
      f0      :     0.004525  f :     0.037632
      f+1     :     0.001349
      f-1     :     0.006054
      f+2     :     0.006770
      f-2     :     0.006614
      f+3     :     0.006548
      f-3     :     0.005772
 33 H s       :     0.802224  s :     0.802224
      pz      :     0.014637  p :     0.064037
      px      :     0.037613
      py      :     0.011788
 34 H s       :     0.804578  s :     0.804578
      pz      :     0.016793  p :     0.063458
      px      :     0.023730
      py      :     0.022935
 35 H s       :     0.805348  s :     0.805348
      pz      :     0.038846  p :     0.062736
      px      :     0.013518
      py      :     0.010372


                      *****************************
                      * MAYER POPULATION ANALYSIS *
                      *****************************

  NA   - Mulliken gross atomic population
  ZA   - Total nuclear charge
  QA   - Mulliken gross atomic charge
  VA   - Mayer's total valence
  BVA  - Mayer's bonded valence
  FA   - Mayer's free valence

  ATOM       NA         ZA         QA         VA         BVA        FA
  0 C      6.1347     6.0000    -0.1347     3.9281     3.9281    -0.0000
  1 C      6.2317     6.0000    -0.2317     3.8834     3.8834     0.0000
  2 C      6.3472     6.0000    -0.3472     3.8759     3.8759     0.0000
  3 H      0.8629     1.0000     0.1371     0.9660     0.9660     0.0000
  4 C      6.2642     6.0000    -0.2642     3.9985     3.9985     0.0000
  5 H      0.8638     1.0000     0.1362     0.9704     0.9704     0.0000
  6 C      5.7807     6.0000     0.2193     3.9829     3.9829    -0.0000
  7 H      0.8591     1.0000     0.1409     0.9805     0.9805    -0.0000
  8 C      5.9275     6.0000     0.0725     3.5282     3.5282    -0.0000
  9 H      0.8521     1.0000     0.1479     0.9702     0.9702    -0.0000
 10 N      7.4602     7.0000    -0.4602     2.8334     2.8334     0.0000
 11 N      6.9656     7.0000     0.0344     3.4702     3.4702     0.0000
 12 C      5.9672     6.0000     0.0328     3.7875     3.7875    -0.0000
 13 C      5.8392     6.0000     0.1608     3.6211     3.6211     0.0000
 14 H      0.8051     1.0000     0.1949     0.9836     0.9836     0.0000
 15 C      6.2418     6.0000    -0.2418     3.9420     3.9420    -0.0000
 16 C      6.2059     6.0000    -0.2059     3.9264     3.9264     0.0000
 17 C      5.8533     6.0000     0.1467     3.7078     3.7078    -0.0000
 18 C      6.1946     6.0000    -0.1946     3.9706     3.9706     0.0000
 19 H      0.8463     1.0000     0.1537     0.9709     0.9709    -0.0000
 20 H      0.8488     1.0000     0.1512     0.9675     0.9675     0.0000
 21 C      6.2175     6.0000    -0.2175     3.8908     3.8908    -0.0000
 22 H      0.8512     1.0000     0.1488     0.9685     0.9685     0.0000
 23 H      0.8219     1.0000     0.1781     0.9510     0.9510    -0.0000
 24 C      6.3940     6.0000    -0.3940     3.8551     3.8551    -0.0000
 25 H      0.8599     1.0000     0.1401     0.9727     0.9727    -0.0000
 26 H      0.8506     1.0000     0.1494     0.9604     0.9604    -0.0000
 27 H      0.8480     1.0000     0.1520     0.9604     0.9604    -0.0000
 28 C      6.3131     6.0000    -0.3131     3.9771     3.9771    -0.0000
 29 H      0.8884     1.0000     0.1116     0.9538     0.9538    -0.0000
 30 H      0.8785     1.0000     0.1215     0.9645     0.9645    -0.0000
 31 H      0.8980     1.0000     0.1020     0.9600     0.9600     0.0000
 32 C      6.3510     6.0000    -0.3510     3.8419     3.8419    -0.0000
 33 H      0.8193     1.0000     0.1807     0.9483     0.9483     0.0000
 34 H      0.8376     1.0000     0.1624     0.9679     0.9679    -0.0000
 35 H      0.8194     1.0000     0.1806     0.9519     0.9519    -0.0000

  Mayer bond orders larger than 0.100000
B(  0-C ,  1-C ) :   1.3119 B(  0-C ,  2-C ) :   1.5413 B(  0-C ,  3-H ) :   0.9768 
B(  1-C ,  4-C ) :   1.4706 B(  1-C ,  5-H ) :   0.9983 B(  2-C ,  6-C ) :   1.1665 
B(  2-C ,  7-H ) :   0.9780 B(  4-C ,  8-C ) :   1.4002 B(  4-C ,  9-H ) :   0.9652 
B(  6-C ,  8-C ) :   1.1628 B(  6-C , 10-N ) :   1.5948 B(  8-C , 11-N ) :   0.9448 
B( 10-N , 12-C ) :   0.1763 B( 10-N , 28-C ) :   1.0053 B( 11-N , 12-C ) :   1.5712 
B( 11-N , 32-C ) :   0.9001 B( 12-C , 13-C ) :   0.9628 B( 12-C , 14-H ) :   0.9292 
B( 13-C , 16-C ) :   1.3011 B( 13-C , 18-C ) :   1.3367 B( 15-C , 17-C ) :   1.3928 
B( 15-C , 18-C ) :   1.4350 B( 15-C , 20-H ) :   0.9716 B( 16-C , 21-C ) :   1.4586 
B( 16-C , 23-H ) :   0.9707 B( 17-C , 21-C ) :   1.3311 B( 17-C , 24-C ) :   0.9275 
B( 18-C , 19-H ) :   0.9874 B( 21-C , 22-H ) :   0.9831 B( 24-C , 25-H ) :   0.9879 
B( 24-C , 26-H ) :   0.9641 B( 24-C , 27-H ) :   0.9679 B( 28-C , 29-H ) :   0.9654 
B( 28-C , 30-H ) :   0.9815 B( 28-C , 31-H ) :   0.9728 B( 32-C , 33-H ) :   0.9560 
B( 32-C , 34-H ) :   0.9576 B( 32-C , 35-H ) :   0.9560 

-------
TIMINGS
-------

Total SCF time: 0 days 0 hours 9 min 32 sec 

Total time                  ....     572.535 sec
Sum of individual times     ....     571.740 sec  ( 99.9%)

Fock matrix formation       ....     569.430 sec  ( 99.5%)
  XC integration            ....       3.633 sec  (  0.6% of F)
    Basis function eval.    ....       0.819 sec  ( 22.5% of XC)
    Density eval.           ....       0.894 sec  ( 24.6% of XC)
    XC-Functional eval.     ....       0.303 sec  (  8.3% of XC)
    XC-Potential eval.      ....       1.409 sec  ( 38.8% of XC)
Diagonalization             ....       0.077 sec  (  0.0%)
Density matrix formation    ....       0.032 sec  (  0.0%)
Population analysis         ....       0.057 sec  (  0.0%)
Initial guess               ....       0.108 sec  (  0.0%)
Orbital Transformation      ....       0.000 sec  (  0.0%)
Orbital Orthonormalization  ....       0.086 sec  (  0.0%)
DIIS solution               ....       0.021 sec  (  0.0%)
SOSCF solution              ....       0.352 sec  (  0.1%)
Grid generation             ....       1.663 sec  (  0.3%)


-------------------------------------------------------------------------------
                          DFT DISPERSION CORRECTION                            
                                                                               
                              DFTD3 V3.1  Rev 1                                
                              USING zero damping                               
-------------------------------------------------------------------------------
The omegaB97X-D3 functional is recognized. Fit by Chai et al.
Active option DFTDOPT                   ...         3   

molecular C6(AA) [au] = 13855.982008 


            DFT-D V3
 parameters
 s6 scaling factor         :     1.0000 
 rs6 scaling factor        :     1.2810 
 s8 scaling factor         :     1.0000 
 rs8 scaling factor        :     1.0940 
 Damping factor alpha6     :    14.0000 
 Damping factor alpha8     :    16.0000 
 ad hoc parameters k1-k3   :    16.0000     1.3333    -4.0000 

 Edisp/kcal,au: -9.129701476143  -0.014549103846 
 E6   /kcal   :  -4.423624999 
 E8   /kcal   :  -4.706076478 
 % E8         :  51.546882337 

-------------------------   ----------------
Dispersion correction           -0.014549104
-------------------------   ----------------


-------------------------   --------------------
FINAL SINGLE POINT ENERGY      -730.028596663066
-------------------------   --------------------

                                *** OPTIMIZATION RUN DONE ***

                            ***************************************
                            *     ORCA property calculations      *
                            ***************************************

                                    ---------------------
                                    Active property flags
                                    ---------------------
   (+) Dipole Moment


------------------------------------------------------------------------------
                       ORCA ELECTRIC PROPERTIES CALCULATION
------------------------------------------------------------------------------

Dipole Moment Calculation                       ... on
Quadrupole Moment Calculation                   ... off
Polarizability Calculation                      ... off
GBWName                                         ... p-Me-DMBI.gbw
Electron density file                           ... p-Me-DMBI.scfp
The origin for moment calculation is the CENTER OF MASS  = (-4.358421, -4.235675 -0.197275)

-------------
DIPOLE MOMENT
-------------
                                X             Y             Z
Electronic contribution:     -3.69270      -2.09781      -4.24814
Nuclear contribution   :      6.52790       0.68986       3.89455
                        -----------------------------------------
Total Dipole Moment    :      2.83520      -1.40795      -0.35359
                        -----------------------------------------
Magnitude (a.u.)       :      3.18523
Magnitude (Debye)      :      8.09622



--------------------
Rotational spectrum 
--------------------
 
Rotational constants in cm-1:     0.035547     0.006834     0.006233 
Rotational constants in MHz :  1065.686593   204.867162   186.855711 

 Dipole components along the rotational axes: 
x,y,z [a.u.] :     2.800583    -1.504394     0.198090 
x,y,z [Debye]:     7.118515    -3.823866     0.503505 

 

Timings for individual modules:

Sum of individual times         ...    80894.003 sec (=1348.233 min)
GTO integral calculation        ...       85.682 sec (=   1.428 min)   0.1 %
SCF iterations                  ...    55470.319 sec (= 924.505 min)  68.6 %
SCF Gradient evaluation         ...    25321.644 sec (= 422.027 min)  31.3 %
Geometry relaxation             ...       16.359 sec (=   0.273 min)   0.0 %
                             ****ORCA TERMINATED NORMALLY****
TOTAL RUN TIME: 0 days 22 hours 28 minutes 26 seconds 320 msec
