Warning: no access to tty (Bad file descriptor).
Thus no job control in this shell.

                                 *****************
                                 * O   R   C   A *
                                 *****************

           --- An Ab Initio, DFT and Semiempirical electronic structure package ---

                  #######################################################
                  #                        -***-                        #
                  #          Department of theory and spectroscopy      #
                  #               Directorship: Frank Neese             #
                  #        Max Planck Institute fuer Kohlenforschung    #
                  #                Kaiser Wilhelm Platz 1               #
                  #                 D-45470 Muelheim/Ruhr               #
                  #                      Germany                        #
                  #                                                     #
                  #                  All rights reserved                #
                  #                        -***-                        #
                  #######################################################


                         Program Version 4.2.1 -  RELEASE  -


 With contributions from (in alphabetic order):
   Daniel Aravena         : Magnetic Suceptibility
   Michael Atanasov       : Ab Initio Ligand Field Theory (pilot matlab implementation)
   Alexander A. Auer      : GIAO ZORA, VPT2
   Ute Becker             : Parallelization
   Giovanni Bistoni       : ED, misc. LED, open-shell LED, HFLD
   Martin Brehm           : Molecular dynamics
   Dmytro Bykov           : SCF Hessian
   Vijay G. Chilkuri      : MRCI spin determinant printing, contributions to CSF-ICE
   Dipayan Datta          : RHF DLPNO-CCSD density
   Achintya Kumar Dutta   : EOM-CC, STEOM-CC
   Dmitry Ganyushin       : Spin-Orbit,Spin-Spin,Magnetic field MRCI
   Miquel Garcia          : C-PCM Hessian, Gaussian charge scheme
   Yang Guo               : DLPNO-NEVPT2, CIM, IAO-localization
   Andreas Hansen         : Spin unrestricted coupled pair/coupled cluster methods
   Benjamin Helmich-Paris : CASSCF linear response (MC-RPA)
   Lee Huntington         : MR-EOM, pCC
   Robert Izsak           : Overlap fitted RIJCOSX, COSX-SCS-MP3, EOM
   Christian Kollmar      : KDIIS, OOCD, Brueckner-CCSD(T), CCSD density
   Simone Kossmann        : Meta GGA functionals, TD-DFT gradient, OOMP2, MP2 Hessian
   Martin Krupicka        : AUTO-CI
   Lucas Lang             : DCDCAS
   Dagmar Lenk            : GEPOL surface, SMD
   Dimitrios Liakos       : Extrapolation schemes; Compound Job, initial MDCI parallelization
   Dimitrios Manganas     : Further ROCIS development; embedding schemes
   Dimitrios Pantazis     : SARC Basis sets
   Taras Petrenko         : DFT Hessian,TD-DFT gradient, ASA, ECA, R-Raman, ABS, FL, XAS/XES, NRVS
   Peter Pinski           : DLPNO-MP2, DLPNO-MP2 Gradient
   Christoph Reimann      : Effective Core Potentials
   Marius Retegan         : Local ZFS, SOC
   Christoph Riplinger    : Optimizer, TS searches, QM/MM, DLPNO-CCSD(T), (RO)-DLPNO pert. Triples
   Tobias Risthaus        : Range-separated hybrids, TD-DFT gradient, RPA, STAB
   Michael Roemelt        : Original ROCIS implementation
   Masaaki Saitow         : Open-shell DLPNO-CCSD energy and density
   Barbara Sandhoefer     : DKH picture change effects
   Avijit Sen             : IP-ROCIS
   Kantharuban Sivalingam : CASSCF convergence, NEVPT2, FIC-MRCI
   Bernardo de Souza      : ESD, SOC TD-DFT
   Georgi Stoychev        : AutoAux, RI-MP2 NMR
   Willem Van den Heuvel  : Paramagnetic NMR
   Boris Wezisla          : Elementary symmetry handling
   Frank Wennmohs         : Technical directorship


 We gratefully acknowledge several colleagues who have allowed us to
 interface, adapt or use parts of their codes:
   Stefan Grimme, W. Hujo, H. Kruse,             : VdW corrections, initial TS optimization,
                  C. Bannwarth                     DFT functionals, gCP, sTDA/sTD-DF
   Ed Valeev, F. Pavosevic, A. Kumar             : LibInt (2-el integral package), F12 methods
   Garnet Chan, S. Sharma, J. Yang, R. Olivares  : DMRG
   Ulf Ekstrom                                   : XCFun DFT Library
   Mihaly Kallay                                 : mrcc  (arbitrary order and MRCC methods)
   Andreas Klamt, Michael Diedenhofen            : otool_cosmo (COSMO solvation model)
   Jiri Pittner, Ondrej Demel                    : Mk-CCSD
   Frank Weinhold                                : gennbo (NPA and NBO analysis)
   Christopher J. Cramer and Donald G. Truhlar   : smd solvation model
   Lars Goerigk                                  : TD-DFT with DH, B97 family of functionals
   V. Asgeirsson, H. Jonsson                     : NEB implementation
   FAccTs GmbH                                   : IRC, NEB, NEB-TS, Multilevel, MM, QM/MM, CI optimization
   S Lehtola, MJT Oliveira, MAL Marques          : LibXC Library


 Your calculation uses the libint2 library for the computation of 2-el integrals
 For citations please refer to: http://libint.valeyev.net

 Your ORCA version has been built with support for libXC version: 4.2.3
 For citations please refer to: https://tddft.org/programs/libxc/

 This ORCA versions uses:
   CBLAS   interface :  Fast vector & matrix operations
   LAPACKE interface :  Fast linear algebra routines
   SCALAPACK package :  Parallel linear algebra routines


Your calculation utilizes the atom-pairwise dispersion correction
with the zero-damping scheme (D30)
Cite in your paper:
S.Grimme, J.Antony, S.Ehrlich and H.Krieg, J.Chem.Phys., 132, (2010), 154104 
   

XCFun DFT library Copyright 2009-2010 Ulf Ekstrom and contributors.
See http://admol.org/xcfun for more information. This is free soft-
ware; see the source code for copying conditions. There is ABSOLUTELY
NO WARRANTY; not even for MERCHANTABILITY or FITNESS FOR A PARTICULAR
PURPOSE. For details see the documentation. Scientific users of this 
library should cite U. Ekstrom, L. Visscher, R. Bast, A. J. Thorvald-
sen and K. Ruud; J.Chem.Theor.Comp. 2010, DOI: 10.1021/ct100117s
XCFun Version 0.99 
----- Orbital basis set information -----
Your calculation utilizes the basis: def2-TZVP
   F. Weigend and R. Ahlrichs, Phys. Chem. Chem. Phys. 7, 3297 (2005).

----- AuxJ basis set information -----
Your calculation utilizes the auxiliary basis: def2/J
   F. Weigend, Phys. Chem. Chem. Phys. 8, 1057 (2006).

================================================================================
                                        WARNINGS
                       Please study these warnings very carefully!
================================================================================


WARNING: Geometry Optimization
  ===> : Switching off AutoStart
         For restart on a previous wavefunction, please use MOREAD

INFO   : the flag for use of LIBINT has been found!

================================================================================
                                       INPUT FILE
================================================================================
NAME = F4-R-TCNQ.inp
|  1> # avogadro generated ORCA input file 
|  2> # Basic Mode
|  3> # 
|  4> ! wB97X-D3 OPT def2-TZVP def2/J CPCM
|  5> %cpcm
|  6>   epsilon 3
|  7> end
|  8> %pal
|  9>  nprocs 8
| 10> end 
| 11> 
| 12> * xyz 0 1
| 13>    F        0.99536        0.03890       -0.07505
| 14>    C        2.35667       -0.05111       -0.08645
| 15>    C        3.00887        1.19038       -0.09421
| 16>    F        2.20612        2.29444       -0.09485
| 17>    C        4.41822        1.27629       -0.09863
| 18>    C        5.14812        0.06559       -0.07378
| 19>    F        6.51187        0.03870       -0.04784
| 20>    C        4.50467       -1.18378       -0.05596
| 21>    F        5.38069       -2.21143        0.02336
| 22>    C        3.07616       -1.29284       -0.08770
| 23>    C        2.37880       -2.50586       -0.11139
| 24>    C        2.97975       -3.91193       -0.14559
| 25>    O        2.25813       -5.06292       -0.06565
| 26>    C        0.89824       -5.20290       -0.05853
| 27>    O        4.17024       -4.07101       -0.27032
| 28>    C        0.92528       -2.43797       -0.13177
| 29>    N       -0.22977       -2.34916       -0.14725
| 30>    C        5.05738        2.49332       -0.10963
| 31>    C        4.36247        3.75813       -0.11754
| 32>    N        3.81212        4.77396       -0.12389
| 33>    C        6.49315        2.63960       -0.10784
| 34>    N        7.64187        2.76346       -0.10647
| 35>    H        0.61595       -6.25493        0.02458
| 36>    H        0.47658       -4.80580       -0.99274
| 37>    H        0.46037       -4.66493        0.79031
| 38> *
| 39> 
| 40> 
| 41>                          ****END OF INPUT****
================================================================================

                       *****************************
                       * Geometry Optimization Run *
                       *****************************

Geometry optimization settings:
Update method            Update   .... BFGS
Choice of coordinates    CoordSys .... Z-matrix Internals
Initial Hessian          InHess   .... Almoef's Model

Convergence Tolerances:
Energy Change            TolE     ....  5.0000e-06 Eh
Max. Gradient            TolMAXG  ....  3.0000e-04 Eh/bohr
RMS Gradient             TolRMSG  ....  1.0000e-04 Eh/bohr
Max. Displacement        TolMAXD  ....  4.0000e-03 bohr
RMS Displacement         TolRMSD  ....  2.0000e-03 bohr
Strict Convergence                ....  False
------------------------------------------------------------------------------
                        ORCA OPTIMIZATION COORDINATE SETUP
------------------------------------------------------------------------------

The optimization will be done in new redundant internal coordinates
Making redundant internal coordinates   ...  (new redundants) done
Evaluating the initial hessian          ...  (Almloef) done
Evaluating the coordinates              ...  done
Calculating the B-matrix                .... done
Calculating the G-matrix                .... done
Diagonalizing the G-matrix              .... done
Small eigenvalue found = 5.647e-03
Small eigenvalue found = 1.624e-02
Small eigenvalue found = 2.379e-02
Small eigenvalue found = 2.672e-02
The first mode is                       ....   37
The number of degrees of freedom        ....   69

    -----------------------------------------------------------------
                    Redundant Internal Coordinates


    -----------------------------------------------------------------
         Definition                    Initial Value    Approx d2E/dq
    -----------------------------------------------------------------
      1. B(C   1,F   0)                  1.3643         0.571375   
      2. B(C   2,C   1)                  1.4024         0.596976   
      3. B(F   3,C   2)                  1.3650         0.569870   
      4. B(C   4,C   2)                  1.4120         0.576345   
      5. B(C   5,C   4)                  1.4139         0.572239   
      6. B(F   6,C   5)                  1.3643         0.571519   
      7. B(C   7,C   5)                  1.4054         0.590337   
      8. B(F   8,C   7)                  1.3527         0.596340   
      9. B(C   9,C   7)                  1.4330         0.533464   
     10. B(C   9,C   1)                  1.4351         0.529367   
     11. B(C  10,C   9)                  1.3994         0.603613   
     12. B(C  11,C  10)                  1.5295         0.374274   
     13. B(O  12,C  11)                  1.3608         0.622856   
     14. B(C  13,O  12)                  1.3671         0.608724   
     15. B(O  14,C  11)                  1.2075         1.093940   
     16. B(C  15,C  10)                  1.4552         0.491633   
     17. B(N  16,C  15)                  1.1586         1.309541   
     18. B(C  17,C   4)                  1.3747         0.660912   
     19. B(C  18,C  17)                  1.4432         0.513958   
     20. B(N  19,C  18)                  1.1554         1.325082   
     21. B(C  20,C  17)                  1.4432         0.513873   
     22. B(N  21,C  20)                  1.1554         1.324946   
     23. B(H  22,C  13)                  1.0924         0.356924   
     24. B(H  23,C  13)                  1.0992         0.348137   
     25. B(H  24,C  13)                  1.0962         0.351981   
     26. A(C   2,C   1,C   9)          122.1954         0.419102   
     27. A(F   0,C   1,C   2)          113.9333         0.420233   
     28. A(F   0,C   1,C   9)          123.8711         0.411344   
     29. A(C   1,C   2,C   4)          121.2033         0.425516   
     30. A(F   3,C   2,C   4)          122.5319         0.417411   
     31. A(C   1,C   2,F   3)          116.2647         0.420035   
     32. A(C   5,C   4,C  17)          121.2107         0.432798   
     33. A(C   2,C   4,C  17)          121.1962         0.433355   
     34. A(C   2,C   4,C   5)          117.5881         0.422308   
     35. A(C   4,C   5,F   6)          122.2248         0.417094   
     36. A(F   6,C   5,C   7)          116.0970         0.419414   
     37. A(C   4,C   5,C   7)          121.6727         0.424122   
     38. A(F   8,C   7,C   9)          126.0901         0.415047   
     39. A(C   5,C   7,C   9)          121.5848         0.418842   
     40. A(C   5,C   7,F   8)          112.3084         0.422609   
     41. A(C   1,C   9,C  10)          120.0127         0.419929   
     42. A(C   1,C   9,C   7)          115.7153         0.410804   
     43. A(C   7,C   9,C  10)          124.2710         0.420507   
     44. A(C  11,C  10,C  15)          115.7863         0.381068   
     45. A(C   9,C  10,C  15)          117.2284         0.414436   
     46. A(C   9,C  10,C  11)          126.9741         0.394954   
     47. A(O  12,C  11,O  14)          114.6726         0.475360   
     48. A(C  10,C  11,O  14)          120.7160         0.436149   
     49. A(C  10,C  11,O  12)          124.6023         0.394599   
     50. A(C  11,O  12,C  13)          127.9074         0.427355   
     51. A(H  22,C  13,H  24)          108.0884         0.289398   
     52. A(H  23,C  13,H  24)          109.1229         0.288271   
     53. A(O  12,C  13,H  24)          110.5558         0.348310   
     54. A(H  22,C  13,H  23)          108.2668         0.288901   
     55. A(O  12,C  13,H  23)          109.8872         0.347667   
     56. A(O  12,C  13,H  22)          110.8579         0.349130   
     57. L(C  10,C  15,N  16,C  11, 2) 180.0346         0.473599   
     58. L(C  10,C  15,N  16,C  11, 1) 181.7227         0.473599   
     59. A(C   4,C  17,C  20)          123.5230         0.424528   
     60. A(C   4,C  17,C  18)          123.5085         0.424541   
     61. A(C  18,C  17,C  20)          112.9679         0.405963   
     62. L(C  17,C  18,N  19,C  20, 2) 179.9990         0.478523   
     63. L(C  17,C  18,N  19,C  20, 1) 179.6625         0.478523   
     64. L(C  17,C  20,N  21,C  18, 2) 180.0023         0.478499   
     65. L(C  17,C  20,N  21,C  18, 1) 179.6633         0.478499   
     66. D(F   3,C   2,C   1,F   0)     -0.2566         0.024555   
     67. D(C   4,C   2,C   1,F   0)    179.6346         0.024555   
     68. D(C   4,C   2,C   1,C   9)     -0.2409         0.024555   
     69. D(F   3,C   2,C   1,C   9)    179.8679         0.024555   
     70. D(C   5,C   4,C   2,C   1)     -0.9680         0.022808   
     71. D(C   5,C   4,C   2,F   3)    178.9163         0.022808   
     72. D(C  17,C   4,C   2,F   3)     -0.2811         0.022808   
     73. D(C  17,C   4,C   2,C   1)    179.8347         0.022808   
     74. D(C   7,C   5,C   4,C  17)    179.6936         0.022470   
     75. D(C   7,C   5,C   4,C   2)      0.4963         0.022470   
     76. D(F   6,C   5,C   4,C  17)      0.5791         0.022470   
     77. D(F   6,C   5,C   4,C   2)   -178.6182         0.022470   
     78. D(C   9,C   7,C   5,C   4)      1.2018         0.023984   
     79. D(F   8,C   7,C   5,F   6)      1.7664         0.023984   
     80. D(F   8,C   7,C   5,C   4)   -177.3995         0.023984   
     81. D(C   9,C   7,C   5,F   6)   -179.6324         0.023984   
     82. D(C  10,C   9,C   7,F   8)     -3.5441         0.019432   
     83. D(C   1,C   9,C   7,F   8)    176.0982         0.019432   
     84. D(C   1,C   9,C   7,C   5)     -2.3004         0.019432   
     85. D(C  10,C   9,C   1,C   2)   -178.5025         0.019127   
     86. D(C  10,C   9,C   1,F   0)      1.6345         0.019127   
     87. D(C  10,C   9,C   7,C   5)    178.0573         0.019432   
     88. D(C   7,C   9,C   1,C   2)      1.8388         0.019127   
     89. D(C   7,C   9,C   1,F   0)   -178.0242         0.019127   
     90. D(C  15,C  10,C   9,C   7)    179.5285         0.025134   
     91. D(C  15,C  10,C   9,C   1)     -0.0994         0.025134   
     92. D(C  11,C  10,C   9,C   7)     -1.7485         0.025134   
     93. D(C  11,C  10,C   9,C   1)    178.6237         0.025134   
     94. D(O  14,C  11,C  10,C   9)     -6.3858         0.009718   
     95. D(O  12,C  11,C  10,C  15)     -6.4911         0.009718   
     96. D(O  12,C  11,C  10,C   9)    174.7699         0.009718   
     97. D(O  14,C  11,C  10,C  15)    172.3532         0.009718   
     98. D(C  13,O  12,C  11,O  14)   -172.7713         0.028482   
     99. D(C  13,O  12,C  11,C  10)      6.1353         0.028482   
    100. D(H  24,C  13,O  12,C  11)    -59.6308         0.029921   
    101. D(H  23,C  13,O  12,C  11)     60.8806         0.029921   
    102. D(H  22,C  13,O  12,C  11)   -179.4809         0.029921   
    103. D(C  20,C  17,C   4,C   5)      0.5107         0.030486   
    104. D(C  20,C  17,C   4,C   2)    179.6790         0.030486   
    105. D(C  18,C  17,C   4,C   5)   -179.1734         0.030486   
    106. D(C  18,C  17,C   4,C   2)     -0.0051         0.030486   
    -----------------------------------------------------------------

Number of atoms                         .... 25
Number of degrees of freedom            .... 106

         *************************************************************
         *                GEOMETRY OPTIMIZATION CYCLE   1            *
         *************************************************************
---------------------------------
CARTESIAN COORDINATES (ANGSTROEM)
---------------------------------
  F      0.995360    0.038900   -0.075050
  C      2.356670   -0.051110   -0.086450
  C      3.008870    1.190380   -0.094210
  F      2.206120    2.294440   -0.094850
  C      4.418220    1.276290   -0.098630
  C      5.148120    0.065590   -0.073780
  F      6.511870    0.038700   -0.047840
  C      4.504670   -1.183780   -0.055960
  F      5.380690   -2.211430    0.023360
  C      3.076160   -1.292840   -0.087700
  C      2.378800   -2.505860   -0.111390
  C      2.979750   -3.911930   -0.145590
  O      2.258130   -5.062920   -0.065650
  C      0.898240   -5.202900   -0.058530
  O      4.170240   -4.071010   -0.270320
  C      0.925280   -2.437970   -0.131770
  N     -0.229770   -2.349160   -0.147250
  C      5.057380    2.493320   -0.109630
  C      4.362470    3.758130   -0.117540
  N      3.812120    4.773960   -0.123890
  C      6.493150    2.639600   -0.107840
  N      7.641870    2.763460   -0.106470
  H      0.615950   -6.254930    0.024580
  H      0.476580   -4.805800   -0.992740
  H      0.460370   -4.664930    0.790310

----------------------------
CARTESIAN COORDINATES (A.U.)
----------------------------
  NO LB      ZA    FRAG     MASS         X           Y           Z
   0 F     9.0000    0    18.998    1.880958    0.073510   -0.141824
   1 C     6.0000    0    12.011    4.453461   -0.096584   -0.163367
   2 C     6.0000    0    12.011    5.685940    2.249492   -0.178031
   3 F     9.0000    0    18.998    4.168963    4.335863   -0.179241
   4 C     6.0000    0    12.011    8.349226    2.411839   -0.186384
   5 C     6.0000    0    12.011    9.728537    0.123947   -0.139424
   6 F     9.0000    0    18.998   12.305651    0.073132   -0.090404
   7 C     6.0000    0    12.011    8.512593   -2.237020   -0.105749
   8 F     9.0000    0    18.998   10.168031   -4.178997    0.044144
   9 C     6.0000    0    12.011    5.813100   -2.443114   -0.165729
  10 C     6.0000    0    12.011    4.495281   -4.735389   -0.210497
  11 C     6.0000    0    12.011    5.630911   -7.392476   -0.275125
  12 O     8.0000    0    15.999    4.267247   -9.567532   -0.124061
  13 C     6.0000    0    12.011    1.697428   -9.832056   -0.110606
  14 O     8.0000    0    15.999    7.880612   -7.693094   -0.510831
  15 C     6.0000    0    12.011    1.748526   -4.607096   -0.249009
  16 N     7.0000    0    14.007   -0.434202   -4.439269   -0.278262
  17 C     6.0000    0    12.011    9.557063    4.711692   -0.207171
  18 C     6.0000    0    12.011    8.243874    7.101836   -0.222118
  19 N     7.0000    0    14.007    7.203863    9.021477   -0.234118
  20 C     6.0000    0    12.011   12.270275    4.988121   -0.203788
  21 N     7.0000    0    14.007   14.441041    5.222183   -0.201199
  22 H     1.0000    0     1.008    1.163977  -11.820105    0.046449
  23 H     1.0000    0     1.008    0.900606   -9.081646   -1.876007
  24 H     1.0000    0     1.008    0.869973   -8.815440    1.493469

--------------------------------
INTERNAL COORDINATES (ANGSTROEM)
--------------------------------
 F      0   0   0     0.000000000000     0.00000000     0.00000000
 C      1   0   0     1.364330119949     0.00000000     0.00000000
 C      2   1   0     1.402398829756   113.93330754     0.00000000
 F      3   2   1     1.365048151422   116.26465360   359.74341272
 C      3   2   1     1.411972905902   121.20331628   179.63458100
 C      5   3   2     1.413918676056   117.58809611   359.03203624
 F      6   5   3     1.364261711769   122.22482184   181.38183064
 C      6   5   3     1.405443293698   121.67265099     0.49629858
 F      8   6   5     1.352688887106   112.30843512   182.60054602
 C      8   6   5     1.433018608149   121.58477050     1.20181456
 C     10   8   6     1.399389047442   124.27103388   178.05726213
 C     11  10   8     1.529491218478   126.97406057   358.25154187
 O     12  11  10     1.360846724690   124.60231699   174.76994611
 C     13  12  11     1.367093964181   127.90738107     6.13530922
 O     12  11  10     1.207530728139   120.71597451   353.61423538
 C     11  10   8     1.455247328429   117.22838579   179.52847248
 N     16  11  10     1.158562621959   178.27722215   359.46423401
 C      5   3   2     1.374703068484   121.19623376   179.83465990
 C     18   5   3     1.443158623402   123.50845826     0.00000000
 N     19  18   5     1.155351043579   179.66246741   179.80617160
 C     18   5   3     1.443203566861   123.52300830   179.67896628
 N     21  18   5     1.155379078441   179.66325178   180.06555728
 H     14  13  12     1.092411111762   110.85793271   180.51908490
 H     14  13  12     1.099196929444   109.88716111    60.88055978
 H     14  13  12     1.096207646115   110.55578079   300.36915504

---------------------------
INTERNAL COORDINATES (A.U.)
---------------------------
 F      0   0   0     0.000000000000     0.00000000     0.00000000
 C      1   0   0     2.578210282964     0.00000000     0.00000000
 C      2   1   0     2.650149718770   113.93330754     0.00000000
 F      3   2   1     2.579567165803   116.26465360   359.74341272
 C      3   2   1     2.668242100671   121.20331628   179.63458100
 C      5   3   2     2.671919073382   117.58809611   359.03203624
 F      6   5   3     2.578081010239   122.22482184   181.38183064
 C      6   5   3     2.655902921845   121.67265099     0.49629858
 F      8   6   5     2.556211541029   112.30843512   182.60054602
 C      8   6   5     2.708012714214   121.58477050     1.20181456
 C     10   8   6     2.644462054474   124.27103388   178.05726213
 C     11  10   8     2.890319527160   126.97406057   358.25154187
 O     12  11  10     2.571627619908   124.60231699   174.76994611
 C     13  12  11     2.583433191639   127.90738107     6.13530922
 O     12  11  10     2.281902374477   120.71597451   353.61423538
 C     11  10   8     2.750018907852   117.22838579   179.52847248
 N     16  11  10     2.189366064500   178.27722215   359.46423401
 C      5   3   2     2.597812314896   121.19623376   179.83465990
 C     18   5   3     2.727174566037   123.50845826     0.00000000
 N     19  18   5     2.183297060905   179.66246741   179.80617160
 C     18   5   3     2.727259496865   123.52300830   179.67896628
 N     21  18   5     2.183350039116   179.66325178   180.06555728
 H     14  13  12     2.064357826882   110.85793271   180.51908490
 H     14  13  12     2.077181163897   109.88716111    60.88055978
 H     14  13  12     2.071532237067   110.55578079   300.36915504

---------------------
BASIS SET INFORMATION
---------------------
There are 5 groups of distinct atoms

 Group   1 Type F   : 11s6p2d1f contracted to 5s3p2d1f pattern {62111/411/11/1}
 Group   2 Type C   : 11s6p2d1f contracted to 5s3p2d1f pattern {62111/411/11/1}
 Group   3 Type O   : 11s6p2d1f contracted to 5s3p2d1f pattern {62111/411/11/1}
 Group   4 Type N   : 11s6p2d1f contracted to 5s3p2d1f pattern {62111/411/11/1}
 Group   5 Type H   : 5s1p contracted to 3s1p pattern {311/1}

Atom   0F    basis set group =>   1
Atom   1C    basis set group =>   2
Atom   2C    basis set group =>   2
Atom   3F    basis set group =>   1
Atom   4C    basis set group =>   2
Atom   5C    basis set group =>   2
Atom   6F    basis set group =>   1
Atom   7C    basis set group =>   2
Atom   8F    basis set group =>   1
Atom   9C    basis set group =>   2
Atom  10C    basis set group =>   2
Atom  11C    basis set group =>   2
Atom  12O    basis set group =>   3
Atom  13C    basis set group =>   2
Atom  14O    basis set group =>   3
Atom  15C    basis set group =>   2
Atom  16N    basis set group =>   4
Atom  17C    basis set group =>   2
Atom  18C    basis set group =>   2
Atom  19N    basis set group =>   4
Atom  20C    basis set group =>   2
Atom  21N    basis set group =>   4
Atom  22H    basis set group =>   5
Atom  23H    basis set group =>   5
Atom  24H    basis set group =>   5
---------------------------------
AUXILIARY/J BASIS SET INFORMATION
---------------------------------
There are 5 groups of distinct atoms

 Group   1 Type F   : 12s5p4d2f1g contracted to 6s4p3d1f1g pattern {711111/2111/211/2/1}
 Group   2 Type C   : 12s5p4d2f1g contracted to 6s4p3d1f1g pattern {711111/2111/211/2/1}
 Group   3 Type O   : 12s5p4d2f1g contracted to 6s4p3d1f1g pattern {711111/2111/211/2/1}
 Group   4 Type N   : 12s5p4d2f1g contracted to 6s4p3d1f1g pattern {711111/2111/211/2/1}
 Group   5 Type H   : 5s2p1d contracted to 3s1p1d pattern {311/2/1}

Atom   0F    basis set group =>   1
Atom   1C    basis set group =>   2
Atom   2C    basis set group =>   2
Atom   3F    basis set group =>   1
Atom   4C    basis set group =>   2
Atom   5C    basis set group =>   2
Atom   6F    basis set group =>   1
Atom   7C    basis set group =>   2
Atom   8F    basis set group =>   1
Atom   9C    basis set group =>   2
Atom  10C    basis set group =>   2
Atom  11C    basis set group =>   2
Atom  12O    basis set group =>   3
Atom  13C    basis set group =>   2
Atom  14O    basis set group =>   3
Atom  15C    basis set group =>   2
Atom  16N    basis set group =>   4
Atom  17C    basis set group =>   2
Atom  18C    basis set group =>   2
Atom  19N    basis set group =>   4
Atom  20C    basis set group =>   2
Atom  21N    basis set group =>   4
Atom  22H    basis set group =>   5
Atom  23H    basis set group =>   5
Atom  24H    basis set group =>   5
--------------------------------------------------------------------------
[[31193,1],1]: A high-performance Open MPI point-to-point messaging module
was unable to find any relevant network interfaces:

Module: OpenFabrics (openib)
  Host: compute-0-9

Another transport will be used instead, although this may result in
lower performance.

NOTE: You can disable this warning by setting the MCA parameter
btl_base_warn_component_unused to 0.
--------------------------------------------------------------------------


           ************************************************************
           *        Program running with 8 parallel MPI-processes     *
           *            working without local directories             *
           ************************************************************
------------------------------------------------------------------------------
                           ORCA GTO INTEGRAL CALCULATION
------------------------------------------------------------------------------

                         BASIS SET STATISTICS AND STARTUP INFO

 # of primitive gaussian shells          ...  458
 # of primitive gaussian functions       ... 1036
 # of contracted shells                  ...  254
 # of contracted basis functions         ...  700
 Highest angular momentum                ...    3
 Maximum contraction depth               ...    6
 Integral package used                   ... LIBINT
 Integral threshhold            Thresh   ...  2.500e-11
 Primitive cut-off              TCut     ...  2.500e-12


------------------------------ INTEGRAL EVALUATION ----------------------------


 * One electron integrals 
 Pre-screening matrix                    ... done
 Shell pair data                         ... done (   0.014 sec)

[compute-0-9.local:56566] 7 more processes have sent help message help-mpi-btl-base.txt / btl:no-nics
[compute-0-9.local:56566] Set MCA parameter "orte_base_help_aggregate" to 0 to see all help / error messages
--------------------------------------------------------------------------
[[30754,1],0]: A high-performance Open MPI point-to-point messaging module
was unable to find any relevant network interfaces:

Module: OpenFabrics (openib)
  Host: compute-0-9

Another transport will be used instead, although this may result in
lower performance.

NOTE: You can disable this warning by setting the MCA parameter
btl_base_warn_component_unused to 0.
--------------------------------------------------------------------------


           ************************************************************
           *        Program running with 8 parallel MPI-processes     *
           *            working without local directories             *
           ************************************************************
-------------------------------------------------------------------------------
                                 ORCA SCF
-------------------------------------------------------------------------------

------------
SCF SETTINGS
------------
Hamiltonian:
 Density Functional     Method          .... DFT(GTOs)
 Exchange Functional    Exchange        .... WB97X-D3
 Correlation Functional Correlation     .... WB97X-D3
 Gradients option       PostSCFGGA      .... off
 Hybrid DFT is turned on
   Fraction HF Exchange ScalHFX         ....  0.195728
   Scaling of DF-GGA-X  ScalDFX         ....  0.000000
   Scaling of DF-GGA-C  ScalDFC         ....  1.000000
   Scaling of DF-LDA-C  ScalLDAC        ....  1.000000
   Perturbative correction              ....  0.000000
   Density functional embedding theory  .... OFF
 Long-range corrected/Screened/Range-Separated Hybrid DFT is turned on
   Amount of maximum screened exact exchange              ....  0.804272
   Range separation parameter mu (erf(mu*r12)/r12)        ....  0.250000


General Settings:
 Integral files         IntName         .... F4-R-TCNQ
 Hartree-Fock type      HFTyp           .... RHF
 Total Charge           Charge          ....    0
 Multiplicity           Mult            ....    1
 Number of Electrons    NEL             ....  154
 Basis Dimension        Dim             ....  700
 Nuclear Repulsion      ENuc            ....   1703.3779810918 Eh

Convergence Acceleration:
 DIIS                   CNVDIIS         .... on
   Start iteration      DIISMaxIt       ....    12
   Startup error        DIISStart       ....  0.200000
   # of expansion vecs  DIISMaxEq       ....     5
   Bias factor          DIISBfac        ....   1.050
   Max. coefficient     DIISMaxC        ....  10.000
 Newton-Raphson         CNVNR           .... off
 SOSCF                  CNVSOSCF        .... on
   Start iteration      SOSCFMaxIt      ....   150
   Startup grad/error   SOSCFStart      ....  0.003300
 Level Shifting         CNVShift        .... on
   Level shift para.    LevelShift      ....    0.2500
   Turn off err/grad.   ShiftErr        ....    0.0010
 Zerner damping         CNVZerner       .... off
 Static damping         CNVDamp         .... on
   Fraction old density DampFac         ....    0.7000
   Max. Damping (<1)    DampMax         ....    0.9800
   Min. Damping (>=0)   DampMin         ....    0.0000
   Turn off err/grad.   DampErr         ....    0.1000
 Fernandez-Rico         CNVRico         .... off

SCF Procedure:
 Maximum # iterations   MaxIter         ....   125
 SCF integral mode      SCFMode         .... Direct
   Integral package                     .... LIBINT
 Reset frequency        DirectResetFreq ....    20
 Integral Threshold     Thresh          ....  2.500e-11 Eh
 Primitive CutOff       TCut            ....  2.500e-12 Eh

Convergence Tolerance:
 Convergence Check Mode ConvCheckMode   .... Total+1el-Energy
 Convergence forced     ConvForced      .... 0
 Energy Change          TolE            ....  1.000e-08 Eh
 1-El. energy change                    ....  1.000e-05 Eh
 Orbital Gradient       TolG            ....  1.000e-05
 Orbital Rotation angle TolX            ....  1.000e-05
 DIIS Error             TolErr          ....  5.000e-07


Diagonalization of the overlap matrix:
Smallest eigenvalue                        ... 9.494e-06
Time for diagonalization                   ...    0.341 sec
Threshold for overlap eigenvalues          ... 1.000e-08
Number of eigenvalues below threshold      ... 0
Time for construction of square roots      ...    0.646 sec
Total time needed                          ...    0.991 sec

-------------------
DFT GRID GENERATION
-------------------

General Integration Accuracy     IntAcc      ...  4.340
Radial Grid Type                 RadialGrid  ... Gauss-Chebyshev
Angular Grid (max. acc.)         AngularGrid ... Lebedev-110
Angular grid pruning method      GridPruning ... 3 (G Style)
Weight generation scheme         WeightScheme... Becke
Basis function cutoff            BFCut       ...    1.0000e-11
Integration weight cutoff        WCut        ...    1.0000e-14
Grids for H and He will be reduced by one unit

# of grid points (after initial pruning)     ...  39408 (   0.0 sec)
# of grid points (after weights+screening)   ...  36019 (   0.1 sec)
nearest neighbour list constructed           ...    0.0 sec
Grid point re-assignment to atoms done       ...    0.0 sec
Grid point division into batches done        ...    0.1 sec
Reduced shell lists constructed in    0.3 sec

Total number of grid points                  ...    36019
Total number of batches                      ...      577
Average number of points per batch           ...       62
Average number of grid points per atom       ...     1441
Average number of shells per batch           ...   128.77 (50.70%)
Average number of basis functions per batch  ...   357.72 (51.10%)
Average number of large shells per batch     ...    91.62 (71.15%)
Average number of large basis fcns per batch ...   254.89 (71.26%)
Maximum spatial batch extension              ...  15.79, 11.00, 21.91 au
Average spatial batch extension              ...   0.35,  0.34,  0.62 au

Time for grid setup =    0.705 sec

------------------------------
INITIAL GUESS: MODEL POTENTIAL
------------------------------
Loading Hartree-Fock densities                     ... done
Calculating cut-offs                               ... done
Setting up the integral package                    ... done
Initializing the effective Hamiltonian             ... done
Starting the Coulomb interaction                   ... done (   0.4 sec)
Reading the grid                                   ... done
Mapping shells                                     ... done
Starting the XC term evaluation                    ... done (   0.7 sec)
  promolecular density results
     # of electrons  =    153.987406166
     EX              =   -143.073019447
     EC              =     -5.232743584
     EX+EC           =   -148.305763031
Transforming the Hamiltonian                       ... done (   0.1 sec)
Diagonalizing the Hamiltonian                      ... [compute-0-9.local:56589] 7 more processes have sent help message help-mpi-btl-base.txt / btl:no-nics
[compute-0-9.local:56589] Set MCA parameter "orte_base_help_aggregate" to 0 to see all help / error messages
done (   0.3 sec)
Back transforming the eigenvectors                 ... done (   0.3 sec)
Now organizing SCF variables                       ... done
                      ------------------
                      INITIAL GUESS DONE (   2.8 sec)
                      ------------------

--------------------
CPCM SOLVATION MODEL
--------------------
CPCM parameters:
  Epsilon                                         ...       3.0000
  Refrac                                          ...       1.3300
  Rsolv                                           ...       1.3000
  Surface type                                    ...    GEPOL SES
  Epsilon function type                           ...         CPCM
Radii:
 Radius for F  used is    3.2503 Bohr (=   1.7200 Ang.)
 Radius for C  used is    3.7795 Bohr (=   2.0000 Ang.)
 Radius for O  used is    3.2503 Bohr (=   1.7200 Ang.)
 Radius for N  used is    3.4582 Bohr (=   1.8300 Ang.)
 Radius for H  used is    2.4566 Bohr (=   1.3000 Ang.)
Calculating surface                               ...        done! (  0.1s)
GEPOL surface points                              ...          840
GEPOL Volume                                      ...    2027.4891
GEPOL Surface-area                                ...    1024.9164
Calculating surface distance matrix               ...        done! (  0.0s)
Performing Cholesky decomposition & store         ...        done! (  0.1s)
Overall time for CPCM initialization              ...                 0.2s
--------------
SCF ITERATIONS
--------------
ITER       Energy         Delta-E        Max-DP      RMS-DP      [F,P]     Damp
               ***  Starting incremental Fock matrix formation  ***
  0  -1210.7151928467   0.000000000000 0.05468132  0.00069757  0.2873186 0.7000
  1  -1210.9247551563  -0.209562309659 0.04151414  0.00052890  0.1330962 0.7000
                               ***Turning on DIIS***
  2  -1211.0092115181  -0.084456361745 0.06021470  0.00097442  0.0466255 0.0000
  3  -1211.1589736054  -0.149762087344 0.04071540  0.00042672  0.0664427 0.0000
  4  -1211.1823972369  -0.023423631483 0.01000341  0.00014916  0.0156296 0.0000
  5  -1211.1842340112  -0.001836774349 0.00572145  0.00006893  0.0024595 0.0000
  6  -1211.1845426224  -0.000308611172 0.00331924  0.00004024  0.0018426 0.0000
                      *** Initiating the SOSCF procedure ***
                           *** Shutting down DIIS ***
                      *** Re-Reading the Fockian *** 
                      *** Removing any level shift *** 
ITER      Energy       Delta-E        Grad      Rot      Max-DP    RMS-DP
  7  -1211.18468489  -0.0001422702  0.003072  0.003072  0.002001  0.000027
               *** Restarting incremental Fock matrix formation ***
  8  -1211.18474656  -0.0000616713  0.001324  0.003851  0.000721  0.000011
  9  -1211.18476795  -0.0000213852  0.000494  0.004095  0.000918  0.000016
 10  -1211.18477465  -0.0000067041  0.000242  0.000986  0.000350  0.000005
 11  -1211.18477638  -0.0000017253  0.000092  0.000316  0.000132  0.000002
 12  -1211.18477653  -0.0000001547  0.000061  0.000190  0.000100  0.000001
 13  -1211.18477667  -0.0000001346  0.000013  0.000071  0.000035  0.000001
 14  -1211.18477668  -0.0000000072  0.000012  0.000032  0.000018  0.000000
 15  -1211.18477668  -0.0000000037  0.000004  0.000020  0.000008  0.000000
                  ***Gradient check signals convergence***
              ***Rediagonalizing the Fockian in SOSCF/NRSCF***

               *****************************************************
               *                     SUCCESS                       *
               *           SCF CONVERGED AFTER  16 CYCLES          *
               *****************************************************

Setting up the final grid:

General Integration Accuracy     IntAcc      ...  4.670
Radial Grid Type                 RadialGrid  ... Gauss-Chebyshev
Angular Grid (max. acc.)         AngularGrid ... Lebedev-302
Angular grid pruning method      GridPruning ... 3 (G Style)
Weight generation scheme         WeightScheme... Becke
Basis function cutoff            BFCut       ...    1.0000e-11
Integration weight cutoff        WCut        ...    1.0000e-14
Grids for H and He will be reduced by one unit

# of grid points (after initial pruning)     ... 147086 (   0.0 sec)
# of grid points (after weights+screening)   ... 132155 (   0.4 sec)
nearest neighbour list constructed           ...    0.0 sec
Grid point re-assignment to atoms done       ...    0.0 sec
Grid point division into batches done        ...    0.9 sec
Reduced shell lists constructed in    1.6 sec

Total number of grid points                  ...   132155
Total number of batches                      ...     2079
Average number of points per batch           ...       63
Average number of grid points per atom       ...     5286
Average number of shells per batch           ...   117.10 (46.10%)
Average number of basis functions per batch  ...   323.62 (46.23%)
Average number of large shells per batch     ...    82.05 (70.07%)
Average number of large basis fcns per batch ...   226.10 (69.87%)
Maximum spatial batch extension              ...  12.52,  9.65, 22.92 au
Average spatial batch extension              ...   0.25,  0.24,  0.32 au

Final grid set up in    2.5 sec
Final integration                            ... done (   2.6 sec)
Change in XC energy                          ...     0.004268712
Integrated number of electrons               ...   153.999943921
Previous integrated no of electrons          ...   153.995433973

----------------
TOTAL SCF ENERGY
----------------

Total Energy       :        -1211.18050796 Eh          -32957.89717 eV

Components:
Nuclear Repulsion  :         1703.37798109 Eh           46351.27132 eV
Electronic Energy  :        -2914.55848905 Eh          -79309.16849 eV
One Electron Energy:        -5042.19166102 Eh         -137205.01046 eV
Two Electron Energy:         2127.63317196 Eh           57895.84198 eV
CPCM Dielectric    :           -0.02083882 Eh              -0.56705 eV

Virial components:
Potential Energy   :        -2417.31627888 Eh          -65778.52006 eV
Kinetic Energy     :         1206.13577091 Eh           32820.62289 eV
Virial Ratio       :            2.00418256


DFT components:
N(Alpha)           :       76.999971960317 electrons
N(Beta)            :       76.999971960317 electrons
N(Total)           :      153.999943920634 electrons
E(XC)              :     -105.947658803623 Eh       
DFET-embed. en.    :        0.000000000000 Eh       
CPCM Solvation Model Properties:
Surface-charge          :           -0.02629099
Charge-correction       :            0.00020729 Eh               0.00564 eV
Free-energy (cav+disp)  :            0.00519878 Eh               0.14147 eV
Corrected G(solv)       :        -1211.17510189 Eh          -32957.75006 eV

---------------
SCF CONVERGENCE
---------------

  Last Energy change         ...    3.7621e-09  Tolerance :   1.0000e-08
  Last MAX-Density change    ...    8.1814e-06  Tolerance :   1.0000e-07
  Last RMS-Density change    ...    1.2798e-07  Tolerance :   5.0000e-09
  Last Orbital Gradient      ...    2.0116e-06  Tolerance :   1.0000e-05
  Last Orbital Rotation      ...    1.2209e-05  Tolerance :   1.0000e-05

             **** THE GBW FILE WAS UPDATED (F4-R-TCNQ.gbw) ****
             **** DENSITY FILE WAS UPDATED (F4-R-TCNQ.scfp) ****
             **** ENERGY FILE WAS UPDATED (F4-R-TCNQ.en.tmp) ****
             **** THE GBW FILE WAS UPDATED (F4-R-TCNQ.gbw) ****
             **** DENSITY FILE WAS UPDATED (F4-R-TCNQ.scfp) ****
----------------
ORBITAL ENERGIES
----------------

  NO   OCC          E(Eh)            E(eV) 
   0   2.0000     -24.854923      -676.3368 
   1   2.0000     -24.853380      -676.2948 
   2   2.0000     -24.852747      -676.2776 
   3   2.0000     -24.838373      -675.8865 
   4   2.0000     -19.304127      -525.2920 
   5   2.0000     -19.245218      -523.6890 
   6   2.0000     -14.461343      -393.5131 
   7   2.0000     -14.461143      -393.5077 
   8   2.0000     -14.457784      -393.4163 
   9   2.0000     -10.460694      -284.6500 
  10   2.0000     -10.449776      -284.3529 
  11   2.0000     -10.446255      -284.2570 
  12   2.0000     -10.446037      -284.2511 
  13   2.0000     -10.442669      -284.1595 
  14   2.0000     -10.415137      -283.4103 
  15   2.0000     -10.410839      -283.2933 
  16   2.0000     -10.407369      -283.1989 
  17   2.0000     -10.402763      -283.0736 
  18   2.0000     -10.362003      -281.9644 
  19   2.0000     -10.361495      -281.9506 
  20   2.0000     -10.358793      -281.8771 
  21   2.0000     -10.335070      -281.2316 
  22   2.0000      -1.402781       -38.1716 
  23   2.0000      -1.398580       -38.0573 
  24   2.0000      -1.385257       -37.6948 
  25   2.0000      -1.378318       -37.5059 
  26   2.0000      -1.255657       -34.1682 
  27   2.0000      -1.170741       -31.8575 
  28   2.0000      -1.086314       -29.5601 
  29   2.0000      -1.070031       -29.1170 
  30   2.0000      -1.060157       -28.8483 
  31   2.0000      -1.057915       -28.7873 
  32   2.0000      -1.019515       -27.7424 
  33   2.0000      -0.959768       -26.1166 
  34   2.0000      -0.930437       -25.3185 
  35   2.0000      -0.894495       -24.3405 
  36   2.0000      -0.863363       -23.4933 
  37   2.0000      -0.816222       -22.2105 
  38   2.0000      -0.815793       -22.1989 
  39   2.0000      -0.763086       -20.7646 
  40   2.0000      -0.737553       -20.0698 
  41   2.0000      -0.726816       -19.7777 
  42   2.0000      -0.714007       -19.4291 
  43   2.0000      -0.694028       -18.8855 
  44   2.0000      -0.676083       -18.3972 
  45   2.0000      -0.674789       -18.3620 
  46   2.0000      -0.663414       -18.0524 
  47   2.0000      -0.657540       -17.8926 
  48   2.0000      -0.653897       -17.7934 
  49   2.0000      -0.632951       -17.2235 
  50   2.0000      -0.631488       -17.1836 
  51   2.0000      -0.620088       -16.8735 
  52   2.0000      -0.607021       -16.5179 
  53   2.0000      -0.599604       -16.3161 
  54   2.0000      -0.595018       -16.1913 
  55   2.0000      -0.580074       -15.7846 
  56   2.0000      -0.560184       -15.2434 
  57   2.0000      -0.556432       -15.1413 
  58   2.0000      -0.554523       -15.0893 
  59   2.0000      -0.543556       -14.7909 
  60   2.0000      -0.540024       -14.6948 
  61   2.0000      -0.532164       -14.4809 
  62   2.0000      -0.516549       -14.0560 
  63   2.0000      -0.512471       -13.9450 
  64   2.0000      -0.507668       -13.8143 
  65   2.0000      -0.506554       -13.7840 
  66   2.0000      -0.494801       -13.4642 
  67   2.0000      -0.485320       -13.2062 
  68   2.0000      -0.478946       -13.0328 
  69   2.0000      -0.475399       -12.9363 
  70   2.0000      -0.463585       -12.6148 
  71   2.0000      -0.446597       -12.1525 
  72   2.0000      -0.437527       -11.9057 
  73   2.0000      -0.411679       -11.2023 
  74   2.0000      -0.401667       -10.9299 
  75   2.0000      -0.386037       -10.5046 
  76   2.0000      -0.339099        -9.2273 
  77   0.0000      -0.133523        -3.6334 
  78   0.0000       0.005019         0.1366 
  79   0.0000       0.013943         0.3794 
  80   0.0000       0.047614         1.2956 
  81   0.0000       0.056810         1.5459 
  82   0.0000       0.065432         1.7805 
  83   0.0000       0.071298         1.9401 
  84   0.0000       0.093460         2.5432 
  85   0.0000       0.104554         2.8451 
  86   0.0000       0.114673         3.1204 
  87   0.0000       0.127488         3.4691 
  88   0.0000       0.130194         3.5428 
  89   0.0000       0.132891         3.6161 
  90   0.0000       0.156019         4.2455 
  91   0.0000       0.159410         4.3378 
  92   0.0000       0.170914         4.6508 
  93   0.0000       0.183330         4.9887 
  94   0.0000       0.186456         5.0737 
  95   0.0000       0.187827         5.1110 
  96   0.0000       0.201148         5.4735 
  97   0.0000       0.211354         5.7512 
  98   0.0000       0.212582         5.7847 
  99   0.0000       0.231671         6.3041 
 100   0.0000       0.236269         6.4292 
 101   0.0000       0.240226         6.5369 
 102   0.0000       0.249563         6.7910 
 103   0.0000       0.259623         7.0647 
 104   0.0000       0.265803         7.2329 
 105   0.0000       0.272041         7.4026 
 106   0.0000       0.274517         7.4700 
 107   0.0000       0.281823         7.6688 
 108   0.0000       0.285701         7.7743 
 109   0.0000       0.288692         7.8557 
 110   0.0000       0.300776         8.1845 
 111   0.0000       0.302940         8.2434 
 112   0.0000       0.306963         8.3529 
 113   0.0000       0.309083         8.4106 
 114   0.0000       0.317898         8.6504 
 115   0.0000       0.322748         8.7824 
 116   0.0000       0.329207         8.9582 
 117   0.0000       0.333731         9.0813 
 118   0.0000       0.347068         9.4442 
 119   0.0000       0.354023         9.6334 
 120   0.0000       0.360447         9.8083 
 121   0.0000       0.365555         9.9473 
 122   0.0000       0.368266        10.0210 
 123   0.0000       0.376196        10.2368 
 124   0.0000       0.379224        10.3192 
 125   0.0000       0.388523        10.5722 
 126   0.0000       0.398955        10.8561 
 127   0.0000       0.406776        11.0690 
 128   0.0000       0.414500        11.2791 
 129   0.0000       0.416785        11.3413 
 130   0.0000       0.419220        11.4076 
 131   0.0000       0.430695        11.7198 
 132   0.0000       0.436029        11.8650 
 133   0.0000       0.439957        11.9718 
 134   0.0000       0.443409        12.0658 
 135   0.0000       0.453795        12.3484 
 136   0.0000       0.456612        12.4250 
 137   0.0000       0.461847        12.5675 
 138   0.0000       0.469141        12.7660 
 139   0.0000       0.474127        12.9017 
 140   0.0000       0.484794        13.1919 
 141   0.0000       0.494561        13.4577 
 142   0.0000       0.497581        13.5399 
 143   0.0000       0.509738        13.8707 
 144   0.0000       0.511501        13.9187 
 145   0.0000       0.516290        14.0490 
 146   0.0000       0.519294        14.1307 
 147   0.0000       0.525625        14.3030 
 148   0.0000       0.531158        14.4535 
 149   0.0000       0.534082        14.5331 
 150   0.0000       0.550621        14.9832 
 151   0.0000       0.553885        15.0720 
 152   0.0000       0.559305        15.2195 
 153   0.0000       0.563433        15.3318 
 154   0.0000       0.579942        15.7810 
 155   0.0000       0.589468        16.0402 
 156   0.0000       0.601444        16.3661 
 157   0.0000       0.602168        16.3858 
 158   0.0000       0.606018        16.4906 
 159   0.0000       0.608861        16.5680 
 160   0.0000       0.615370        16.7451 
 161   0.0000       0.627052        17.0630 
 162   0.0000       0.633679        17.2433 
 163   0.0000       0.636863        17.3299 
 164   0.0000       0.644893        17.5484 
 165   0.0000       0.647229        17.6120 
 166   0.0000       0.651701        17.7337 
 167   0.0000       0.656102        17.8534 
 168   0.0000       0.662395        18.0247 
 169   0.0000       0.668525        18.1915 
 170   0.0000       0.674658        18.3584 
 171   0.0000       0.685323        18.6486 
 172   0.0000       0.693824        18.8799 
 173   0.0000       0.701809        19.0972 
 174   0.0000       0.707402        19.2494 
 175   0.0000       0.714701        19.4480 
 176   0.0000       0.718420        19.5492 
 177   0.0000       0.725691        19.7471 
 178   0.0000       0.734043        19.9743 
 179   0.0000       0.740835        20.1592 
 180   0.0000       0.750532        20.4230 
 181   0.0000       0.750901        20.4331 
 182   0.0000       0.764751        20.8099 
 183   0.0000       0.772421        21.0186 
 184   0.0000       0.779179        21.2025 
 185   0.0000       0.785554        21.3760 
 186   0.0000       0.792963        21.5776 
 187   0.0000       0.797458        21.6999 
 188   0.0000       0.802638        21.8409 
 189   0.0000       0.813445        22.1350 
 190   0.0000       0.820440        22.3253 
 191   0.0000       0.827789        22.5253 
 192   0.0000       0.835725        22.7412 
 193   0.0000       0.838512        22.8171 
 194   0.0000       0.843821        22.9615 
 195   0.0000       0.858019        23.3479 
 196   0.0000       0.859472        23.3874 
 197   0.0000       0.864509        23.5245 
 198   0.0000       0.866814        23.5872 
 199   0.0000       0.876938        23.8627 
 200   0.0000       0.878159        23.8959 
 201   0.0000       0.885259        24.0891 
 202   0.0000       0.894071        24.3289 
 203   0.0000       0.894860        24.3504 
 204   0.0000       0.914477        24.8842 
 205   0.0000       0.918916        25.0050 
 206   0.0000       0.922815        25.1111 
 207   0.0000       0.932453        25.3733 
 208   0.0000       0.938720        25.5439 
 209   0.0000       0.944034        25.6885 
 210   0.0000       0.969735        26.3878 
 211   0.0000       0.976615        26.5751 
 212   0.0000       0.979379        26.6503 
 213   0.0000       0.982967        26.7479 
 214   0.0000       0.994391        27.0588 
 215   0.0000       0.998945        27.1827 
 216   0.0000       1.019499        27.7420 
 217   0.0000       1.025344        27.9010 
 218   0.0000       1.032266        28.0894 
 219   0.0000       1.034996        28.1637 
 220   0.0000       1.050285        28.5797 
 221   0.0000       1.059202        28.8224 
 222   0.0000       1.067577        29.0503 
 223   0.0000       1.069849        29.1121 
 224   0.0000       1.085779        29.5456 
 225   0.0000       1.094624        29.7862 
 226   0.0000       1.106222        30.1018 
 227   0.0000       1.122136        30.5349 
 228   0.0000       1.125452        30.6251 
 229   0.0000       1.136813        30.9342 
 230   0.0000       1.147958        31.2375 
 231   0.0000       1.150539        31.3078 
 232   0.0000       1.168196        31.7882 
 233   0.0000       1.175341        31.9827 
 234   0.0000       1.190447        32.3937 
 235   0.0000       1.192078        32.4381 
 236   0.0000       1.205585        32.8056 
 237   0.0000       1.219122        33.1740 
 238   0.0000       1.231775        33.5183 
 239   0.0000       1.247354        33.9422 
 240   0.0000       1.257615        34.2215 
 241   0.0000       1.263131        34.3716 
 242   0.0000       1.267886        34.5009 
 243   0.0000       1.271523        34.5999 
 244   0.0000       1.278955        34.8021 
 245   0.0000       1.290763        35.1234 
 246   0.0000       1.310576        35.6626 
 247   0.0000       1.318450        35.8769 
 248   0.0000       1.319249        35.8986 
 249   0.0000       1.328308        36.1451 
 250   0.0000       1.333205        36.2783 
 251   0.0000       1.345147        36.6033 
 252   0.0000       1.365872        37.1673 
 253   0.0000       1.372529        37.3484 
 254   0.0000       1.380065        37.5535 
 255   0.0000       1.387025        37.7429 
 256   0.0000       1.390067        37.8256 
 257   0.0000       1.420432        38.6519 
 258   0.0000       1.422640        38.7120 
 259   0.0000       1.430446        38.9244 
 260   0.0000       1.448166        39.4066 
 261   0.0000       1.451378        39.4940 
 262   0.0000       1.460326        39.7375 
 263   0.0000       1.465654        39.8825 
 264   0.0000       1.465959        39.8908 
 265   0.0000       1.473395        40.0931 
 266   0.0000       1.493858        40.6499 
 267   0.0000       1.508030        41.0356 
 268   0.0000       1.510044        41.0904 
 269   0.0000       1.512237        41.1501 
 270   0.0000       1.515307        41.2336 
 271   0.0000       1.531140        41.6644 
 272   0.0000       1.539146        41.8823 
 273   0.0000       1.565092        42.5883 
 274   0.0000       1.573653        42.8213 
 275   0.0000       1.575905        42.8826 
 276   0.0000       1.596894        43.4537 
 277   0.0000       1.605155        43.6785 
 278   0.0000       1.607637        43.7460 
 279   0.0000       1.612319        43.8734 
 280   0.0000       1.616450        43.9858 
 281   0.0000       1.618083        44.0303 
 282   0.0000       1.634885        44.4875 
 283   0.0000       1.637196        44.5504 
 284   0.0000       1.657481        45.1023 
 285   0.0000       1.668868        45.4122 
 286   0.0000       1.683581        45.8126 
 287   0.0000       1.692463        46.0543 
 288   0.0000       1.696634        46.1678 
 289   0.0000       1.713447        46.6253 
 290   0.0000       1.721685        46.8494 
 291   0.0000       1.732504        47.1438 
 292   0.0000       1.740036        47.3488 
 293   0.0000       1.743215        47.4353 
 294   0.0000       1.762842        47.9694 
 295   0.0000       1.781298        48.4716 
 296   0.0000       1.793737        48.8101 
 297   0.0000       1.827286        49.7230 
 298   0.0000       1.837120        49.9906 
 299   0.0000       1.846956        50.2582 
 300   0.0000       1.875426        51.0329 
 301   0.0000       1.883862        51.2625 
 302   0.0000       1.901294        51.7368 
 303   0.0000       1.920250        52.2527 
 304   0.0000       1.922760        52.3210 
 305   0.0000       1.928178        52.4684 
 306   0.0000       1.939452        52.7752 
 307   0.0000       1.953164        53.1483 
 308   0.0000       1.959521        53.3213 
 309   0.0000       1.961628        53.3786 
 310   0.0000       1.980415        53.8898 
 311   0.0000       1.996110        54.3169 
 312   0.0000       2.010427        54.7065 
 313   0.0000       2.033167        55.3253 
 314   0.0000       2.043322        55.6016 
 315   0.0000       2.047128        55.7052 
 316   0.0000       2.059272        56.0356 
 317   0.0000       2.064586        56.1802 
 318   0.0000       2.077542        56.5328 
 319   0.0000       2.084403        56.7195 
 320   0.0000       2.097247        57.0690 
 321   0.0000       2.106374        57.3174 
 322   0.0000       2.109485        57.4020 
 323   0.0000       2.125955        57.8502 
 324   0.0000       2.136078        58.1256 
 325   0.0000       2.143166        58.3185 
 326   0.0000       2.150348        58.5140 
 327   0.0000       2.168743        59.0145 
 328   0.0000       2.174250        59.1644 
 329   0.0000       2.181936        59.3735 
 330   0.0000       2.194443        59.7138 
 331   0.0000       2.202367        59.9295 
 332   0.0000       2.210245        60.1438 
 333   0.0000       2.224321        60.5269 
 334   0.0000       2.232195        60.7411 
 335   0.0000       2.238134        60.9027 
 336   0.0000       2.240358        60.9632 
 337   0.0000       2.265706        61.6530 
 338   0.0000       2.285204        62.1836 
 339   0.0000       2.291964        62.3675 
 340   0.0000       2.302503        62.6543 
 341   0.0000       2.319440        63.1152 
 342   0.0000       2.346812        63.8600 
 343   0.0000       2.350961        63.9729 
 344   0.0000       2.359534        64.2062 
 345   0.0000       2.362627        64.2904 
 346   0.0000       2.366601        64.3985 
 347   0.0000       2.374800        64.6216 
 348   0.0000       2.400465        65.3200 
 349   0.0000       2.416987        65.7696 
 350   0.0000       2.434141        66.2364 
 351   0.0000       2.450602        66.6843 
 352   0.0000       2.455950        66.8298 
 353   0.0000       2.465472        67.0889 
 354   0.0000       2.477406        67.4137 
 355   0.0000       2.480035        67.4852 
 356   0.0000       2.481249        67.5182 
 357   0.0000       2.485235        67.6267 
 358   0.0000       2.505798        68.1862 
 359   0.0000       2.513305        68.3905 
 360   0.0000       2.546417        69.2915 
 361   0.0000       2.550351        69.3986 
 362   0.0000       2.554243        69.5045 
 363   0.0000       2.555538        69.5397 
 364   0.0000       2.559237        69.6404 
 365   0.0000       2.574741        70.0623 
 366   0.0000       2.597110        70.6709 
 367   0.0000       2.611571        71.0645 
 368   0.0000       2.615836        71.1805 
 369   0.0000       2.621947        71.3468 
 370   0.0000       2.624962        71.4288 
 371   0.0000       2.643651        71.9374 
 372   0.0000       2.650037        72.1112 
 373   0.0000       2.655871        72.2699 
 374   0.0000       2.669308        72.6356 
 375   0.0000       2.696620        73.3788 
 376   0.0000       2.699330        73.4525 
 377   0.0000       2.705712        73.6262 
 378   0.0000       2.728357        74.2424 
 379   0.0000       2.730650        74.3048 
 380   0.0000       2.735281        74.4308 
 381   0.0000       2.745581        74.7110 
 382   0.0000       2.751079        74.8607 
 383   0.0000       2.758853        75.0722 
 384   0.0000       2.765308        75.2479 
 385   0.0000       2.778105        75.5961 
 386   0.0000       2.792454        75.9865 
 387   0.0000       2.809043        76.4379 
 388   0.0000       2.818624        76.6987 
 389   0.0000       2.833132        77.0934 
 390   0.0000       2.850727        77.5722 
 391   0.0000       2.854915        77.6862 
 392   0.0000       2.863069        77.9081 
 393   0.0000       2.871718        78.1434 
 394   0.0000       2.874671        78.2238 
 395   0.0000       2.876225        78.2661 
 396   0.0000       2.888969        78.6128 
 397   0.0000       2.890531        78.6554 
 398   0.0000       2.900270        78.9203 
 399   0.0000       2.915640        79.3386 
 400   0.0000       2.919663        79.4481 
 401   0.0000       2.925421        79.6048 
 402   0.0000       2.931753        79.7770 
 403   0.0000       2.932697        79.8028 
 404   0.0000       2.943344        80.0925 
 405   0.0000       2.955240        80.4162 
 406   0.0000       2.966396        80.7197 
 407   0.0000       2.976798        81.0028 
 408   0.0000       2.989540        81.3495 
 409   0.0000       2.998749        81.6001 
 410   0.0000       3.002279        81.6962 
 411   0.0000       3.012474        81.9736 
 412   0.0000       3.022568        82.2483 
 413   0.0000       3.026394        82.3524 
 414   0.0000       3.032253        82.5118 
 415   0.0000       3.042896        82.8014 
 416   0.0000       3.050914        83.0196 
 417   0.0000       3.059554        83.2547 
 418   0.0000       3.061613        83.3107 
 419   0.0000       3.077568        83.7449 
 420   0.0000       3.085987        83.9740 
 421   0.0000       3.088263        84.0359 
 422   0.0000       3.094791        84.2135 
 423   0.0000       3.108247        84.5797 
 424   0.0000       3.113841        84.7319 
 425   0.0000       3.125076        85.0376 
 426   0.0000       3.129413        85.1557 
 427   0.0000       3.144701        85.5717 
 428   0.0000       3.147974        85.6607 
 429   0.0000       3.163695        86.0885 
 430   0.0000       3.170542        86.2748 
 431   0.0000       3.175666        86.4143 
 432   0.0000       3.181246        86.5661 
 433   0.0000       3.193219        86.8919 
 434   0.0000       3.200632        87.0936 
 435   0.0000       3.204029        87.1860 
 436   0.0000       3.217459        87.5515 
 437   0.0000       3.221250        87.6547 
 438   0.0000       3.228659        87.8563 
 439   0.0000       3.242452        88.2316 
 440   0.0000       3.252581        88.5072 
 441   0.0000       3.254443        88.5579 
 442   0.0000       3.256665        88.6183 
 443   0.0000       3.267985        88.9264 
 444   0.0000       3.276204        89.1500 
 445   0.0000       3.285102        89.3922 
 446   0.0000       3.294491        89.6476 
 447   0.0000       3.305768        89.9545 
 448   0.0000       3.312233        90.1304 
 449   0.0000       3.317496        90.2736 
 450   0.0000       3.327235        90.5387 
 451   0.0000       3.333512        90.7095 
 452   0.0000       3.340631        90.9032 
 453   0.0000       3.352385        91.2230 
 454   0.0000       3.362385        91.4951 
 455   0.0000       3.373855        91.8073 
 456   0.0000       3.379738        91.9674 
 457   0.0000       3.382417        92.0403 
 458   0.0000       3.393012        92.3286 
 459   0.0000       3.397831        92.4597 
 460   0.0000       3.403416        92.6117 
 461   0.0000       3.412611        92.8619 
 462   0.0000       3.414532        92.9141 
 463   0.0000       3.434125        93.4473 
 464   0.0000       3.438327        93.5616 
 465   0.0000       3.455158        94.0196 
 466   0.0000       3.462438        94.2177 
 467   0.0000       3.469247        94.4030 
 468   0.0000       3.476396        94.5976 
 469   0.0000       3.481547        94.7377 
 470   0.0000       3.489879        94.9644 
 471   0.0000       3.499185        95.2177 
 472   0.0000       3.505885        95.4000 
 473   0.0000       3.521380        95.8216 
 474   0.0000       3.534362        96.1749 
 475   0.0000       3.543323        96.4187 
 476   0.0000       3.558924        96.8433 
 477   0.0000       3.565264        97.0158 
 478   0.0000       3.576542        97.3227 
 479   0.0000       3.579563        97.4049 
 480   0.0000       3.591378        97.7264 
 481   0.0000       3.601242        97.9948 
 482   0.0000       3.614212        98.3477 
 483   0.0000       3.629459        98.7626 
 484   0.0000       3.638350        99.0045 
 485   0.0000       3.643779        99.1523 
 486   0.0000       3.666940        99.7825 
 487   0.0000       3.686815       100.3233 
 488   0.0000       3.696563       100.5886 
 489   0.0000       3.703539       100.7784 
 490   0.0000       3.716926       101.1427 
 491   0.0000       3.737440       101.7009 
 492   0.0000       3.746252       101.9407 
 493   0.0000       3.753628       102.1414 
 494   0.0000       3.767196       102.5106 
 495   0.0000       3.775816       102.7452 
 496   0.0000       3.793938       103.2383 
 497   0.0000       3.818506       103.9068 
 498   0.0000       3.839388       104.4751 
 499   0.0000       3.854197       104.8780 
 500   0.0000       3.861202       105.0686 
 501   0.0000       3.900270       106.1318 
 502   0.0000       3.912521       106.4651 
 503   0.0000       3.929934       106.9390 
 504   0.0000       3.933895       107.0467 
 505   0.0000       3.945973       107.3754 
 506   0.0000       3.947965       107.4296 
 507   0.0000       3.959626       107.7469 
 508   0.0000       4.001277       108.8803 
 509   0.0000       4.014190       109.2317 
 510   0.0000       4.036628       109.8422 
 511   0.0000       4.037063       109.8541 
 512   0.0000       4.038585       109.8955 
 513   0.0000       4.045839       110.0929 
 514   0.0000       4.049043       110.1801 
 515   0.0000       4.053003       110.2878 
 516   0.0000       4.054159       110.3193 
 517   0.0000       4.063264       110.5670 
 518   0.0000       4.077266       110.9481 
 519   0.0000       4.086199       111.1911 
 520   0.0000       4.098938       111.5378 
 521   0.0000       4.126484       112.2873 
 522   0.0000       4.141821       112.7047 
 523   0.0000       4.155481       113.0764 
 524   0.0000       4.171252       113.5055 
 525   0.0000       4.182446       113.8101 
 526   0.0000       4.207161       114.4827 
 527   0.0000       4.229479       115.0900 
 528   0.0000       4.240112       115.3793 
 529   0.0000       4.250468       115.6611 
 530   0.0000       4.251476       115.6886 
 531   0.0000       4.257868       115.8625 
 532   0.0000       4.265099       116.0593 
 533   0.0000       4.285965       116.6270 
 534   0.0000       4.315252       117.4240 
 535   0.0000       4.339388       118.0807 
 536   0.0000       4.352257       118.4309 
 537   0.0000       4.358794       118.6088 
 538   0.0000       4.393276       119.5471 
 539   0.0000       4.403241       119.8183 
 540   0.0000       4.408566       119.9632 
 541   0.0000       4.427614       120.4815 
 542   0.0000       4.443324       120.9090 
 543   0.0000       4.461827       121.4125 
 544   0.0000       4.463776       121.4655 
 545   0.0000       4.507920       122.6667 
 546   0.0000       4.548798       123.7791 
 547   0.0000       4.556657       123.9929 
 548   0.0000       4.570344       124.3654 
 549   0.0000       4.592178       124.9595 
 550   0.0000       4.611124       125.4751 
 551   0.0000       4.617996       125.6621 
 552   0.0000       4.623355       125.8079 
 553   0.0000       4.634530       126.1120 
 554   0.0000       4.642568       126.3307 
 555   0.0000       4.654208       126.6474 
 556   0.0000       4.664360       126.9237 
 557   0.0000       4.690967       127.6477 
 558   0.0000       4.700161       127.8979 
 559   0.0000       4.739586       128.9707 
 560   0.0000       4.745135       129.1217 
 561   0.0000       4.752544       129.3233 
 562   0.0000       4.778983       130.0427 
 563   0.0000       4.787722       130.2805 
 564   0.0000       4.791867       130.3933 
 565   0.0000       4.842195       131.7628 
 566   0.0000       4.871193       132.5519 
 567   0.0000       4.887253       132.9889 
 568   0.0000       4.891490       133.1042 
 569   0.0000       4.920747       133.9003 
 570   0.0000       4.942053       134.4801 
 571   0.0000       4.981746       135.5602 
 572   0.0000       5.037942       137.0894 
 573   0.0000       5.055112       137.5566 
 574   0.0000       5.061271       137.7242 
 575   0.0000       5.138277       139.8196 
 576   0.0000       5.159917       140.4085 
 577   0.0000       5.216171       141.9392 
 578   0.0000       5.225601       142.1958 
 579   0.0000       5.231730       142.3626 
 580   0.0000       5.243785       142.6906 
 581   0.0000       5.261819       143.1814 
 582   0.0000       5.270844       143.4270 
 583   0.0000       5.288515       143.9078 
 584   0.0000       5.295736       144.1043 
 585   0.0000       5.317274       144.6904 
 586   0.0000       5.337315       145.2357 
 587   0.0000       5.371931       146.1777 
 588   0.0000       5.385469       146.5461 
 589   0.0000       5.400498       146.9550 
 590   0.0000       5.412203       147.2735 
 591   0.0000       5.472696       148.9196 
 592   0.0000       5.506406       149.8369 
 593   0.0000       5.552734       151.0976 
 594   0.0000       5.566359       151.4683 
 595   0.0000       5.595290       152.2556 
 596   0.0000       5.638570       153.4333 
 597   0.0000       5.647983       153.6894 
 598   0.0000       5.690253       154.8397 
 599   0.0000       5.730903       155.9458 
 600   0.0000       5.751788       156.5141 
 601   0.0000       5.753296       156.5551 
 602   0.0000       5.768806       156.9772 
 603   0.0000       5.789150       157.5308 
 604   0.0000       5.798466       157.7843 
 605   0.0000       5.899328       160.5289 
 606   0.0000       5.909806       160.8140 
 607   0.0000       5.975360       162.5978 
 608   0.0000       5.997694       163.2056 
 609   0.0000       6.030174       164.0894 
 610   0.0000       6.049481       164.6147 
 611   0.0000       6.166446       167.7975 
 612   0.0000       6.197279       168.6365 
 613   0.0000       6.236097       169.6928 
 614   0.0000       6.244964       169.9341 
 615   0.0000       6.250369       170.0812 
 616   0.0000       6.292647       171.2316 
 617   0.0000       6.433252       175.0577 
 618   0.0000       6.468602       176.0196 
 619   0.0000       6.525330       177.5633 
 620   0.0000       6.676235       181.6696 
 621   0.0000       6.679082       181.7471 
 622   0.0000       6.824118       185.6937 
 623   0.0000       6.886038       187.3786 
 624   0.0000       6.914512       188.1534 
 625   0.0000       6.917351       188.2307 
 626   0.0000       6.922367       188.3672 
 627   0.0000       6.931438       188.6140 
 628   0.0000       6.937213       188.7711 
 629   0.0000       6.937746       188.7857 
 630   0.0000       6.948249       189.0715 
 631   0.0000       6.952113       189.1766 
 632   0.0000       6.966779       189.5757 
 633   0.0000       6.972655       189.7356 
 634   0.0000       6.977940       189.8794 
 635   0.0000       6.991605       190.2512 
 636   0.0000       7.041564       191.6107 
 637   0.0000       7.060639       192.1298 
 638   0.0000       7.071170       192.4163 
 639   0.0000       7.084199       192.7709 
 640   0.0000       7.153356       194.6527 
 641   0.0000       7.162447       194.9001 
 642   0.0000       7.192510       195.7181 
 643   0.0000       7.219231       196.4453 
 644   0.0000       7.223576       196.5635 
 645   0.0000       7.236716       196.9211 
 646   0.0000       7.279265       198.0789 
 647   0.0000       7.285408       198.2460 
 648   0.0000       7.331257       199.4937 
 649   0.0000       7.347180       199.9269 
 650   0.0000       7.352210       200.0638 
 651   0.0000       7.440406       202.4637 
 652   0.0000       7.482849       203.6187 
 653   0.0000       7.488950       203.7847 
 654   0.0000       7.500370       204.0955 
 655   0.0000       7.524197       204.7438 
 656   0.0000       7.703118       209.6125 
 657   0.0000       7.886306       214.5973 
 658   0.0000       8.363494       227.5822 
 659   0.0000       8.377739       227.9699 
 660   0.0000       8.400117       228.5788 
 661   0.0000       8.437050       229.5838 
 662   0.0000       8.580511       233.4876 
 663   0.0000       8.590586       233.7617 
 664   0.0000       8.624906       234.6956 
 665   0.0000       8.681662       236.2400 
 666   0.0000       8.740360       237.8373 
 667   0.0000       8.755254       238.2426 
 668   0.0000       8.817817       239.9450 
 669   0.0000       8.855575       240.9725 
 670   0.0000       8.925214       242.8674 
 671   0.0000       8.947438       243.4722 
 672   0.0000       9.050046       246.2643 
 673   0.0000       9.061770       246.5833 
 674   0.0000       9.071230       246.8407 
 675   0.0000       9.120997       248.1949 
 676   0.0000       9.190922       250.0977 
 677   0.0000       9.324095       253.7215 
 678   0.0000      22.467687       611.3768 
 679   0.0000      22.583803       614.5365 
 680   0.0000      22.842410       621.5736 
 681   0.0000      22.870211       622.3301 
 682   0.0000      22.946374       624.4026 
 683   0.0000      22.962617       624.8446 
 684   0.0000      23.112802       628.9313 
 685   0.0000      23.204991       631.4399 
 686   0.0000      23.309080       634.2723 
 687   0.0000      23.446305       638.0064 
 688   0.0000      23.473882       638.7568 
 689   0.0000      23.766320       646.7144 
 690   0.0000      24.060869       654.7295 
 691   0.0000      32.178795       875.6295 
 692   0.0000      32.215138       876.6185 
 693   0.0000      32.283143       878.4690 
 694   0.0000      44.019909      1197.8426 
 695   0.0000      44.292763      1205.2674 
 696   0.0000      57.236385      1557.4812 
 697   0.0000      57.322105      1559.8138 
 698   0.0000      57.551013      1566.0427 
 699   0.0000      57.588187      1567.0542 

                    ********************************
                    * MULLIKEN POPULATION ANALYSIS *
                    ********************************

-----------------------
MULLIKEN ATOMIC CHARGES
-----------------------
   0 F :   -0.155573
   1 C :    0.229793
   2 C :    0.265328
   3 F :   -0.160852
   4 C :   -0.109618
   5 C :    0.254025
   6 F :   -0.159704
   7 C :    0.214514
   8 F :   -0.135794
   9 C :   -0.059529
  10 C :    0.156538
  11 C :    0.384866
  12 O :   -0.211356
  13 C :   -0.247854
  14 O :   -0.338421
  15 C :   -0.248886
  16 N :   -0.038901
  17 C :    0.416410
  18 C :   -0.211533
  19 N :   -0.044234
  20 C :   -0.218877
  21 N :   -0.040881
  22 H :    0.165475
  23 H :    0.148206
  24 H :    0.146858
Sum of atomic charges:   -0.0000000

--------------------------------
MULLIKEN REDUCED ORBITAL CHARGES
--------------------------------
  0 F s       :     3.935556  s :     3.935556
      pz      :     1.878756  p :     5.203373
      px      :     1.412270
      py      :     1.912347
      dz2     :     0.002163  d :     0.015989
      dxz     :     0.003842
      dyz     :     0.000088
      dx2y2   :     0.006529
      dxy     :     0.003368
      f0      :     0.000059  f :     0.000655
      f+1     :     0.000129
      f-1     :     0.000011
      f+2     :     0.000095
      f-2     :     0.000004
      f+3     :     0.000218
      f-3     :     0.000140
  1 C s       :     3.163697  s :     3.163697
      pz      :     0.979277  p :     2.394357
      px      :     0.600972
      py      :     0.814108
      dz2     :     0.007593  d :     0.194697
      dxz     :     0.048954
      dyz     :     0.025198
      dx2y2   :     0.025496
      dxy     :     0.087455
      f0      :     0.002867  f :     0.017456
      f+1     :     0.001512
      f-1     :     0.000955
      f+2     :     0.003008
      f-2     :     0.000886
      f+3     :     0.002397
      f-3     :     0.005832
  2 C s       :     3.111541  s :     3.111541
      pz      :     0.981360  p :     2.409008
      px      :     0.771136
      py      :     0.656512
      dz2     :     0.007251  d :     0.196750
      dxz     :     0.027198
      dyz     :     0.046862
      dx2y2   :     0.080093
      dxy     :     0.035345
      f0      :     0.002885  f :     0.017374
      f+1     :     0.001171
      f-1     :     0.001292
      f+2     :     0.000960
      f-2     :     0.002896
      f+3     :     0.002399
      f-3     :     0.005771
  3 F s       :     3.935599  s :     3.935599
      pz      :     1.880941  p :     5.208859
      px      :     1.737945
      py      :     1.589973
      dz2     :     0.002125  d :     0.015742
      dxz     :     0.001367
      dyz     :     0.002512
      dx2y2   :     0.003426
      dxy     :     0.006311
      f0      :     0.000059  f :     0.000653
      f+1     :     0.000052
      f-1     :     0.000089
      f+2     :     0.000011
      f-2     :     0.000086
      f+3     :     0.000215
      f-3     :     0.000141
  4 C s       :     3.261351  s :     3.261351
      pz      :     0.924139  p :     2.706608
      px      :     0.903272
      py      :     0.879197
      dz2     :     0.008939  d :     0.131295
      dxz     :     0.027511
      dyz     :     0.039331
      dx2y2   :     0.033559
      dxy     :     0.021955
      f0      :     0.002227  f :     0.010363
      f+1     :     0.000916
      f-1     :     0.000893
      f+2     :     0.001125
      f-2     :     0.000975
      f+3     :     0.001309
      f-3     :     0.002918
  5 C s       :     3.115806  s :     3.115806
      pz      :     0.984780  p :     2.415708
      px      :     0.608871
      py      :     0.822057
      dz2     :     0.007586  d :     0.197001
[...]
      f+3     :     0.022908
      f-3     :     0.035418
  2 C s       :     2.703127  s :     2.703127
      pz      :     0.916335  p :     2.700998
      px      :     0.953191
      py      :     0.831472
      dz2     :     0.059565  d :     0.678317
      dxz     :     0.070372
      dyz     :     0.135694
      dx2y2   :     0.207713
      dxy     :     0.204973
      f0      :     0.009509  f :     0.115663
      f+1     :     0.006935
      f-1     :     0.011590
      f+2     :     0.010329
      f-2     :     0.017027
      f+3     :     0.022812
      f-3     :     0.037462
  3 F s       :     3.569368  s :     3.569368
      pz      :     1.801954  p :     5.126826
      px      :     1.755580
      py      :     1.569292
      dz2     :     0.004057  d :     0.033754
      dxz     :     0.001813
      dyz     :     0.007678
      dx2y2   :     0.009340
      dxy     :     0.010866
      f0      :     0.000181  f :     0.001659
      f+1     :     0.000076
      f-1     :     0.000215
      f+2     :     0.000130
      f-2     :     0.000183
      f+3     :     0.000438
      f-3     :     0.000436
  4 C s       :     2.690132  s :     2.690132
      pz      :     0.807961  p :     2.762673
      px      :     0.969346
      py      :     0.985366
      dz2     :     0.046484  d :     0.500973
      dxz     :     0.079840
      dyz     :     0.092350
      dx2y2   :     0.158051
      dxy     :     0.124248
      f0      :     0.004566  f :     0.055338
      f+1     :     0.004977
      f-1     :     0.004982
      f+2     :     0.008148
      f-2     :     0.006995
      f+3     :     0.009937
      f-3     :     0.015733
  5 C s       :     2.702988  s :     2.702988
      pz      :     0.900177  p :     2.697412
      px      :     0.777360
      py      :     1.019876
      dz2     :     0.065855  d :     0.679868
      dxz     :     0.131336
      dyz     :     0.076656
      dx2y2   :     0.196746
      dxy     :     0.209276
      f0      :     0.008994  f :     0.115891
      f+1     :     0.013773
      f-1     :     0.005787
      f+2     :     0.019252
      f-2     :     0.010357
      f+3     :     0.022792
      f-3     :     0.034935
  6 F s       :     3.568875  s :     3.568875
      pz      :     1.785896  p :     5.125086
      px      :     1.532479
      py      :     1.806712
      dz2     :     0.004342  d :     0.033784
      dxz     :     0.009779
      dyz     :     0.000564
      dx2y2   :     0.011288
      dxy     :     0.007812
      f0      :     0.000160  f :     0.001664
      f+1     :     0.000303
      f-1     :     0.000021
      f+2     :     0.000317
      f-2     :     0.000068
      f+3     :     0.000393
      f-3     :     0.000401
  7 C s       :     2.705176  s :     2.705176
      pz      :     0.903261  p :     2.690454
      px      :     0.957492
      py      :     0.829701
      dz2     :     0.061478  d :     0.682280
      dxz     :     0.073348
      dyz     :     0.136610
      dx2y2   :     0.206124
      dxy     :     0.204720
      f0      :     0.009493  f :     0.115922
      f+1     :     0.006768
      f-1     :     0.011931
      f+2     :     0.010867
      f-2     :     0.016706
      f+3     :     0.022944
      f-3     :     0.037214
  8 F s       :     3.567771  s :     3.567771
      pz      :     1.800629  p :     5.125794
      px      :     1.759829
      py      :     1.565337
      dz2     :     0.003976  d :     0.033531
      dxz     :     0.001718
      dyz     :     0.007651
      dx2y2   :     0.009322
      dxy     :     0.010863
      f0      :     0.000177  f :     0.001636
      f+1     :     0.000072
      f-1     :     0.000215
      f+2     :     0.000134
      f-2     :     0.000170
      f+3     :     0.000430
      f-3     :     0.000438
  9 C s       :     2.687320  s :     2.687320
      pz      :     0.842831  p :     2.795953
      px      :     0.964653
      py      :     0.988469
      dz2     :     0.046319  d :     0.501358
      dxz     :     0.077699
      dyz     :     0.086876
      dx2y2   :     0.167590
      dxy     :     0.122874
      f0      :     0.004587  f :     0.056008
      f+1     :     0.005054
      f-1     :     0.005017
      f+2     :     0.008232
      f-2     :     0.006642
      f+3     :     0.010097
      f-3     :     0.016379
 10 C s       :     2.709515  s :     2.709515
      pz      :     0.859031  p :     2.831875
      px      :     0.976814
      py      :     0.996030
      dz2     :     0.043272  d :     0.459357
      dxz     :     0.063413
      dyz     :     0.062651
      dx2y2   :     0.155951
      dxy     :     0.134070
      f0      :     0.004406  f :     0.052478
      f+1     :     0.004784
      f-1     :     0.005019
      f+2     :     0.006661
      f-2     :     0.006157
      f+3     :     0.009578
      f-3     :     0.015872
 11 C s       :     2.741281  s :     2.741281
      pz      :     0.933205  p :     2.612665
      px      :     0.775319
      py      :     0.904141
      dz2     :     0.262922  d :     0.957566
      dxz     :     0.190597
      dyz     :     0.301007
      dx2y2   :     0.093113
      dxy     :     0.109927
      f0      :     0.038680  f :     0.155909
      f+1     :     0.017437
      f-1     :     0.032120
      f+2     :     0.024877
      f-2     :     0.027762
      f+3     :     0.007237
      f-3     :     0.007797
 12 O s       :     3.238514  s :     3.238514
      pz      :     1.279065  p :     4.356736
      px      :     1.542491
      py      :     1.535180
      dz2     :     0.031912  d :     0.110714
      dxz     :     0.021209
      dyz     :     0.040913
      dx2y2   :     0.009569
      dxy     :     0.007111
      f0      :     0.001561  f :     0.006856
      f+1     :     0.000851
      f-1     :     0.001699
      f+2     :     0.001321
      f-2     :     0.000994
      f+3     :     0.000166
      f-3     :     0.000265
 13 C s       :     2.860401  s :     2.860401
      pz      :     0.823474  p :     3.012905
      px      :     1.082947
      py      :     1.106484
      dz2     :     0.084042  d :     0.353003
      dxz     :     0.077349
      dyz     :     0.108513
      dx2y2   :     0.038010
      dxy     :     0.045089
      f0      :     0.013127  f :     0.051931
      f+1     :     0.012607
      f-1     :     0.009800
      f+2     :     0.006767
      f-2     :     0.005826
      f+3     :     0.001502
      f-3     :     0.002302
 14 O s       :     3.391515  s :     3.391515
      pz      :     1.492607  p :     4.391480
      px      :     1.337767
      py      :     1.561106
      dz2     :     0.025474  d :     0.067816
      dxz     :     0.018304
      dyz     :     0.017626
      dx2y2   :     0.002924
      dxy     :     0.003489
      f0      :     0.001938  f :     0.006442
      f+1     :     0.001666
      f-1     :     0.001475
      f+2     :     0.000550
      f-2     :     0.000709
      f+3     :     0.000057
      f-3     :     0.000047
 15 C s       :     2.802934  s :     2.802934
      pz      :     0.870777  p :     2.853553
      px      :     1.142563
      py      :     0.840212
      dz2     :     0.047538  d :     0.427219
      dxz     :     0.127261
      dyz     :     0.006704
      dx2y2   :     0.117230
      dxy     :     0.128486
      f0      :     0.006228  f :     0.062534
      f+1     :     0.010575
      f-1     :     0.000887
      f+2     :     0.011519
      f-2     :     0.001921
      f+3     :     0.015433
      f-3     :     0.015970
 16 N s       :     3.298758  s :     3.298758
      pz      :     1.009190  p :     3.487445
      px      :     1.466671
      py      :     1.011583
      dz2     :     0.012437  d :     0.109172
      dxz     :     0.031919
      dyz     :     0.001440
      dx2y2   :     0.032801
      dxy     :     0.030575
      f0      :     0.001652  f :     0.016619
      f+1     :     0.002868
      f-1     :     0.000224
      f+2     :     0.003032
      f-2     :     0.000519
      f+3     :     0.004173
      f-3     :     0.004152
 17 C s       :     2.688980  s :     2.688980
      pz      :     0.912075  p :     2.864388
      px      :     0.966778
      py      :     0.985534
      dz2     :     0.038677  d :     0.485749
      dxz     :     0.062403
      dyz     :     0.069783
      dx2y2   :     0.169746
      dxy     :     0.145139
      f0      :     0.004483  f :     0.053779
      f+1     :     0.004635
      f-1     :     0.005006
      f+2     :     0.006537
      f-2     :     0.005875
      f+3     :     0.010374
      f-3     :     0.016869
 18 C s       :     2.800375  s :     2.800375
      pz      :     0.856389  p :     2.845815
      px      :     0.870625
      py      :     1.118801
      dz2     :     0.041389  d :     0.425162
      dxz     :     0.014944
      dyz     :     0.124367
      dx2y2   :     0.122104
      dxy     :     0.122359
      f0      :     0.006752  f :     0.062606
      f+1     :     0.001952
      f-1     :     0.008852
      f+2     :     0.007619
      f-2     :     0.004040
      f+3     :     0.016737
      f-3     :     0.016654
 19 N s       :     3.298283  s :     3.298283
      pz      :     1.008698  p :     3.495440
      px      :     1.042884
      py      :     1.443857
      dz2     :     0.011509  d :     0.109178
      dxz     :     0.002815
      dyz     :     0.029159
      dx2y2   :     0.033804
      dxy     :     0.031891
      f0      :     0.001754  f :     0.016763
      f+1     :     0.000486
      f-1     :     0.002528
      f+2     :     0.002096
      f-2     :     0.000947
      f+3     :     0.004467
      f-3     :     0.004485
 20 C s       :     2.800473  s :     2.800473
      pz      :     0.870190  p :     2.845873
      px      :     1.134699
      py      :     0.840984
      dz2     :     0.050113  d :     0.425355
      dxz     :     0.133747
      dyz     :     0.007128
      dx2y2   :     0.115241
      dxy     :     0.119125
      f0      :     0.006058  f :     0.062602
      f+1     :     0.011043
      f-1     :     0.000715
      f+2     :     0.011978
      f-2     :     0.002271
      f+3     :     0.014934
      f-3     :     0.015602
 21 N s       :     3.298258  s :     3.298258
      pz      :     1.031516  p :     3.495733
      px      :     1.462523
      py      :     1.001695
      dz2     :     0.012748  d :     0.109161
      dxz     :     0.032131
      dyz     :     0.001693
      dx2y2   :     0.032424
      dxy     :     0.030165
      f0      :     0.001624  f :     0.016762
      f+1     :     0.002982
      f-1     :     0.000175
      f+2     :     0.003208
      f-2     :     0.000620
      f+3     :     0.004053
      f-3     :     0.004101
 22 H s       :     0.807572  s :     0.807572
      pz      :     0.017253  p :     0.062622
      px      :     0.013100
      py      :     0.032268
 23 H s       :     0.813399  s :     0.813399
      pz      :     0.008660  p :     0.063300
      px      :     0.037710
      py      :     0.016930
 24 H s       :     0.818448  s :     0.818448
      pz      :     0.014170  p :     0.062818
      px      :     0.022968
      py      :     0.025680


                      *****************************
                      * MAYER POPULATION ANALYSIS *
                      *****************************

  NA   - Mulliken gross atomic population
  ZA   - Total nuclear charge
  QA   - Mulliken gross atomic charge
  VA   - Mayer's total valence
  BVA  - Mayer's bonded valence
  FA   - Mayer's free valence

  ATOM       NA         ZA         QA         VA         BVA        FA
  0 F      9.1589     9.0000    -0.1589     1.1591     1.1591    -0.0000
  1 C      5.7580     6.0000     0.2420     3.9341     3.9341    -0.0000
  2 C      5.7198     6.0000     0.2802     3.8524     3.8524    -0.0000
  3 F      9.1627     9.0000    -0.1627     1.1499     1.1499    -0.0000
  4 C      6.1665     6.0000    -0.1665     4.0810     4.0810    -0.0000
  5 C      5.7617     6.0000     0.2383     3.9264     3.9264    -0.0000
  6 F      9.1616     9.0000    -0.1616     1.1544     1.1544    -0.0000
  7 C      5.7247     6.0000     0.2753     3.8623     3.8623    -0.0000
  8 F      9.1621     9.0000    -0.1621     1.1457     1.1457    -0.0000
  9 C      6.0907     6.0000    -0.0907     3.9342     3.9342    -0.0000
 10 C      5.9178     6.0000     0.0822     3.8099     3.8099    -0.0000
 11 C      5.6554     6.0000     0.3446     4.3152     4.3152    -0.0000
 12 O      8.2020     8.0000    -0.2020     2.1632     2.1632    -0.0000
 13 C      6.2256     6.0000    -0.2256     3.8121     3.8121    -0.0000
 14 O      8.3145     8.0000    -0.3145     2.1840     2.1840    -0.0000
 15 C      6.1802     6.0000    -0.1802     3.9922     3.9922    -0.0000
 16 N      7.0272     7.0000    -0.0272     3.0867     3.0867    -0.0000
 17 C      5.5662     6.0000     0.4338     3.5989     3.5989    -0.0000
 18 C      6.2343     6.0000    -0.2343     4.0524     4.0524    -0.0000
 19 N      7.0394     7.0000    -0.0394     3.0979     3.0979    -0.0000
 20 C      6.2317     6.0000    -0.2317     4.0425     4.0425    -0.0000
 21 N      7.0394     7.0000    -0.0394     3.0974     3.0974    -0.0000
 22 H      0.8172     1.0000     0.1828     0.9623     0.9623    -0.0000
 23 H      0.8381     1.0000     0.1619     0.9550     0.9550    -0.0000
 24 H      0.8443     1.0000     0.1557     0.9584     0.9584    -0.0000

  Mayer bond orders larger than 0.100000
B(  0-F ,  1-C ) :   1.0143 B(  1-C ,  2-C ) :   1.7349 B(  1-C ,  9-C ) :   1.0922 
B(  2-C ,  3-F ) :   1.0111 B(  2-C ,  4-C ) :   1.0640 B(  4-C ,  5-C ) :   1.0722 
B(  4-C , 17-C ) :   1.5644 B(  5-C ,  6-F ) :   1.0265 B(  5-C ,  7-C ) :   1.7350 
B(  7-C ,  8-F ) :   1.0122 B(  7-C ,  9-C ) :   1.0285 B(  9-C , 10-C ) :   1.6215 
B( 10-C , 11-C ) :   0.8885 B( 10-C , 15-C ) :   0.9973 B( 11-C , 12-O ) :   1.2763 
B( 11-C , 14-O ) :   2.0645 B( 12-O , 13-C ) :   0.8712 B( 13-C , 22-H ) :   0.9619 
B( 13-C , 23-H ) :   0.9556 B( 13-C , 24-H ) :   0.9610 B( 15-C , 16-N ) :   2.9660 
B( 17-C , 18-C ) :   0.9519 B( 17-C , 20-C ) :   0.9479 B( 18-C , 19-N ) :   2.9847 
B( 20-C , 21-N ) :   2.9854 

-------
TIMINGS
-------

Total SCF time: 0 days 0 hours 15 min 49 sec 

Total time                  ....     949.696 sec
Sum of individual times     ....     946.209 sec  ( 99.6%)

Fock matrix formation       ....     936.319 sec  ( 98.6%)
  XC integration            ....       7.734 sec  (  0.8% of F)
    Basis function eval.    ....       1.154 sec  ( 14.9% of XC)
    Density eval.           ....       2.077 sec  ( 26.9% of XC)
    XC-Functional eval.     ....       0.332 sec  (  4.3% of XC)
    XC-Potential eval.      ....       2.338 sec  ( 30.2% of XC)
Diagonalization             ....       0.560 sec  (  0.1%)
Density matrix formation    ....       0.394 sec  (  0.0%)
Population analysis         ....       0.506 sec  (  0.1%)
Initial guess               ....       0.724 sec  (  0.1%)
Orbital Transformation      ....       0.000 sec  (  0.0%)
Orbital Orthonormalization  ....       0.563 sec  (  0.1%)
DIIS solution               ....       0.161 sec  (  0.0%)
SOSCF solution              ....       4.513 sec  (  0.5%)
Grid generation             ....       3.032 sec  (  0.3%)


-------------------------------------------------------------------------------
                          DFT DISPERSION CORRECTION                            
                                                                               
                              DFTD3 V3.1  Rev 1                                
                              USING zero damping                               
-------------------------------------------------------------------------------
The omegaB97X-D3 functional is recognized. Fit by Chai et al.
Active option DFTDOPT                   ...         3   

molecular C6(AA) [au] = 10321.206367 


            DFT-D V3
 parameters
 s6 scaling factor         :     1.0000 
 rs6 scaling factor        :     1.2810 
 s8 scaling factor         :     1.0000 
 rs8 scaling factor        :     1.0940 
 Damping factor alpha6     :    14.0000 
 Damping factor alpha8     :    16.0000 
 ad hoc parameters k1-k3   :    16.0000     1.3333    -4.0000 

 Edisp/kcal,au: -7.692196406682  -0.012258293945 
 E6   /kcal   :  -3.214983319 
 E8   /kcal   :  -4.477213088 
 % E8         :  58.204612197 

-------------------------   ----------------
Dispersion correction           -0.012258294
-------------------------   ----------------


-------------------------   --------------------
FINAL SINGLE POINT ENERGY     -1211.252590925339
-------------------------   --------------------

                                *** OPTIMIZATION RUN DONE ***

                            ***************************************
                            *     ORCA property calculations      *
                            ***************************************

                                    ---------------------
                                    Active property flags
                                    ---------------------
   (+) Dipole Moment


------------------------------------------------------------------------------
                       ORCA ELECTRIC PROPERTIES CALCULATION
------------------------------------------------------------------------------

Dipole Moment Calculation                       ... on
Quadrupole Moment Calculation                   ... off
Polarizability Calculation                      ... off
GBWName                                         ... F4-R-TCNQ.gbw
Electron density file                           ... F4-R-TCNQ.scfp
The origin for moment calculation is the CENTER OF MASS  = ( 6.326275, -1.155172 -0.574061)

-------------
DIPOLE MOMENT
-------------
                                X             Y             Z
Electronic contribution:      3.64065      10.48769      -3.38731
Nuclear contribution   :     -4.25650     -11.84110       4.81923
                        -----------------------------------------
Total Dipole Moment    :     -0.61585      -1.35340       1.43191
                        -----------------------------------------
Magnitude (a.u.)       :      2.06430
Magnitude (Debye)      :      5.24704



--------------------
Rotational spectrum 
--------------------
 
Rotational constants in cm-1:     0.017474     0.006417     0.005002 
Rotational constants in MHz :   523.866929   192.372524   149.962886 

 Dipole components along the rotational axes: 
x,y,z [a.u.] :    -1.196386     0.379006     1.639014 
x,y,z [Debye]:    -3.040972     0.963356     4.166042 

 
--------------------------------------------------------------------------
[[14731,1],5]: A high-performance Open MPI point-to-point messaging module
was unable to find any relevant network interfaces:

Module: OpenFabrics (openib)
  Host: compute-1-6

Another transport will be used instead, although this may result in
lower performance.

NOTE: You can disable this warning by setting the MCA parameter
btl_base_warn_component_unused to 0.
--------------------------------------------------------------------------
[compute-0-9.local:40100] 7 more processes have sent help message help-mpi-btl-base.txt / btl:no-nics
[compute-0-9.local:40100] Set MCA parameter "orte_base_help_aggregate" to 0 to see all help / error messages

Timings for individual modules:

Sum of individual times         ...    54164.244 sec (= 902.737 min)
GTO integral calculation        ...       60.129 sec (=   1.002 min)   0.1 %
SCF iterations                  ...    34118.282 sec (= 568.638 min)  63.0 %
SCF Gradient evaluation         ...    19980.887 sec (= 333.015 min)  36.9 %
Geometry relaxation             ...        4.946 sec (=   0.082 min)   0.0 %
                             ****ORCA TERMINATED NORMALLY****
TOTAL RUN TIME: 0 days 15 hours 2 minutes 53 seconds 928 msec
