Warning: no access to tty (Bad file descriptor).
Thus no job control in this shell.

                                 *****************
                                 * O   R   C   A *
                                 *****************

           --- An Ab Initio, DFT and Semiempirical electronic structure package ---

                  #######################################################
                  #                        -***-                        #
                  #          Department of theory and spectroscopy      #
                  #               Directorship: Frank Neese             #
                  #        Max Planck Institute fuer Kohlenforschung    #
                  #                Kaiser Wilhelm Platz 1               #
                  #                 D-45470 Muelheim/Ruhr               #
                  #                      Germany                        #
                  #                                                     #
                  #                  All rights reserved                #
                  #                        -***-                        #
                  #######################################################


                         Program Version 4.2.1 -  RELEASE  -


 With contributions from (in alphabetic order):
   Daniel Aravena         : Magnetic Suceptibility
   Michael Atanasov       : Ab Initio Ligand Field Theory (pilot matlab implementation)
   Alexander A. Auer      : GIAO ZORA, VPT2
   Ute Becker             : Parallelization
   Giovanni Bistoni       : ED, misc. LED, open-shell LED, HFLD
   Martin Brehm           : Molecular dynamics
   Dmytro Bykov           : SCF Hessian
   Vijay G. Chilkuri      : MRCI spin determinant printing, contributions to CSF-ICE
   Dipayan Datta          : RHF DLPNO-CCSD density
   Achintya Kumar Dutta   : EOM-CC, STEOM-CC
   Dmitry Ganyushin       : Spin-Orbit,Spin-Spin,Magnetic field MRCI
   Miquel Garcia          : C-PCM Hessian, Gaussian charge scheme
   Yang Guo               : DLPNO-NEVPT2, CIM, IAO-localization
   Andreas Hansen         : Spin unrestricted coupled pair/coupled cluster methods
   Benjamin Helmich-Paris : CASSCF linear response (MC-RPA)
   Lee Huntington         : MR-EOM, pCC
   Robert Izsak           : Overlap fitted RIJCOSX, COSX-SCS-MP3, EOM
   Christian Kollmar      : KDIIS, OOCD, Brueckner-CCSD(T), CCSD density
   Simone Kossmann        : Meta GGA functionals, TD-DFT gradient, OOMP2, MP2 Hessian
   Martin Krupicka        : AUTO-CI
   Lucas Lang             : DCDCAS
   Dagmar Lenk            : GEPOL surface, SMD
   Dimitrios Liakos       : Extrapolation schemes; Compound Job, initial MDCI parallelization
   Dimitrios Manganas     : Further ROCIS development; embedding schemes
   Dimitrios Pantazis     : SARC Basis sets
   Taras Petrenko         : DFT Hessian,TD-DFT gradient, ASA, ECA, R-Raman, ABS, FL, XAS/XES, NRVS
   Peter Pinski           : DLPNO-MP2, DLPNO-MP2 Gradient
   Christoph Reimann      : Effective Core Potentials
   Marius Retegan         : Local ZFS, SOC
   Christoph Riplinger    : Optimizer, TS searches, QM/MM, DLPNO-CCSD(T), (RO)-DLPNO pert. Triples
   Tobias Risthaus        : Range-separated hybrids, TD-DFT gradient, RPA, STAB
   Michael Roemelt        : Original ROCIS implementation
   Masaaki Saitow         : Open-shell DLPNO-CCSD energy and density
   Barbara Sandhoefer     : DKH picture change effects
   Avijit Sen             : IP-ROCIS
   Kantharuban Sivalingam : CASSCF convergence, NEVPT2, FIC-MRCI
   Bernardo de Souza      : ESD, SOC TD-DFT
   Georgi Stoychev        : AutoAux, RI-MP2 NMR
   Willem Van den Heuvel  : Paramagnetic NMR
   Boris Wezisla          : Elementary symmetry handling
   Frank Wennmohs         : Technical directorship


 We gratefully acknowledge several colleagues who have allowed us to
 interface, adapt or use parts of their codes:
   Stefan Grimme, W. Hujo, H. Kruse,             : VdW corrections, initial TS optimization,
                  C. Bannwarth                     DFT functionals, gCP, sTDA/sTD-DF
   Ed Valeev, F. Pavosevic, A. Kumar             : LibInt (2-el integral package), F12 methods
   Garnet Chan, S. Sharma, J. Yang, R. Olivares  : DMRG
   Ulf Ekstrom                                   : XCFun DFT Library
   Mihaly Kallay                                 : mrcc  (arbitrary order and MRCC methods)
   Andreas Klamt, Michael Diedenhofen            : otool_cosmo (COSMO solvation model)
   Jiri Pittner, Ondrej Demel                    : Mk-CCSD
   Frank Weinhold                                : gennbo (NPA and NBO analysis)
   Christopher J. Cramer and Donald G. Truhlar   : smd solvation model
   Lars Goerigk                                  : TD-DFT with DH, B97 family of functionals
   V. Asgeirsson, H. Jonsson                     : NEB implementation
   FAccTs GmbH                                   : IRC, NEB, NEB-TS, Multilevel, MM, QM/MM, CI optimization
   S Lehtola, MJT Oliveira, MAL Marques          : LibXC Library


 Your calculation uses the libint2 library for the computation of 2-el integrals
 For citations please refer to: http://libint.valeyev.net

 Your ORCA version has been built with support for libXC version: 4.2.3
 For citations please refer to: https://tddft.org/programs/libxc/

 This ORCA versions uses:
   CBLAS   interface :  Fast vector & matrix operations
   LAPACKE interface :  Fast linear algebra routines
   SCALAPACK package :  Parallel linear algebra routines


Your calculation utilizes the atom-pairwise dispersion correction
with the zero-damping scheme (D30)
Cite in your paper:
S.Grimme, J.Antony, S.Ehrlich and H.Krieg, J.Chem.Phys., 132, (2010), 154104 
   

XCFun DFT library Copyright 2009-2010 Ulf Ekstrom and contributors.
See http://admol.org/xcfun for more information. This is free soft-
ware; see the source code for copying conditions. There is ABSOLUTELY
NO WARRANTY; not even for MERCHANTABILITY or FITNESS FOR A PARTICULAR
PURPOSE. For details see the documentation. Scientific users of this 
library should cite U. Ekstrom, L. Visscher, R. Bast, A. J. Thorvald-
sen and K. Ruud; J.Chem.Theor.Comp. 2010, DOI: 10.1021/ct100117s
XCFun Version 0.99 
----- Orbital basis set information -----
Your calculation utilizes the basis: def2-TZVP
   F. Weigend and R. Ahlrichs, Phys. Chem. Chem. Phys. 7, 3297 (2005).

----- AuxJ basis set information -----
Your calculation utilizes the auxiliary basis: def2/J
   F. Weigend, Phys. Chem. Chem. Phys. 8, 1057 (2006).

================================================================================
                                        WARNINGS
                       Please study these warnings very carefully!
================================================================================


WARNING: Geometry Optimization
  ===> : Switching off AutoStart
         For restart on a previous wavefunction, please use MOREAD

INFO   : the flag for use of LIBINT has been found!

================================================================================
                                       INPUT FILE
================================================================================
NAME = DPDHP.inp
|  1> # avogadro generated ORCA input file 
|  2> # Basic Mode
|  3> # 
|  4> ! wB97X-D3 OPT def2-TZVP def2/J CPCM
|  5> %cpcm
|  6>   epsilon 3
|  7> end
|  8> %pal
|  9>  nprocs 4
| 10> end 
| 11> 
| 12> * xyz 0 1
| 13>    C        3.56415        7.56100        1.64462
| 14>    O        2.76470        6.44499        1.77983
| 15>    H        3.30421        8.29106        2.43826
| 16>    H        3.39412        8.03761        0.65565
| 17>    H        4.63393        7.28297        1.75571
| 18>    C        2.79806        5.34330        0.98605
| 19>    C        1.91149        4.29895        1.26410
| 20>    C        3.68468        5.21455       -0.09912
| 21>    C        3.67683        4.05871       -0.88424
| 22>    H        4.38403        6.00173       -0.34671
| 23>    C        1.90073        3.14214        0.48013
| 24>    H        1.22334        4.38356        2.09609
| 25>    C        2.78779        3.00172       -0.61005
| 26>    H        4.36757        3.99232       -1.71537
| 27>    H        1.19667        2.36414        0.74151
| 28>    C        2.81793        1.76228       -1.50157
| 29>    C        4.16522        1.10008       -1.41076
| 30>    C        1.69168        0.80671       -1.21862
| 31>    H        2.67656        2.08862       -2.55468
| 32>    C        4.35414       -0.17928       -1.01839
| 33>    H        5.00705        1.71302       -1.70817
| 34>    C        1.86427       -0.47392       -0.82628
| 35>    H        0.69871        1.21426       -1.37151
| 36>    N        3.20849       -0.99200       -0.65335
| 37>    C        3.41099       -2.09648        0.28515
| 38>    H        3.47823       -3.07037       -0.23468
| 39>    H        2.59439       -2.13821        1.03679
| 40>    H        4.32815       -1.94411        0.89245
| 41>    C        5.76977       -0.71897       -0.99080
| 42>    C        6.87747        0.12973       -0.74789
| 43>    C        8.18128       -0.37429       -0.73138
| 44>    H        6.75119        1.18413       -0.54739
| 45>    C        6.03428       -2.08477       -1.23296
| 46>    C        7.34086       -2.58142       -1.21869
| 47>    H        5.24286       -2.77779       -1.46344
| 48>    C        8.41298       -1.72830       -0.96501
| 49>    H        9.01434        0.28856       -0.53523
| 50>    H        9.42368       -2.11553       -0.95420
| 51>    H        7.52186       -3.63114       -1.41141
| 52>    C        0.63206       -1.32258       -0.58927
| 53>    C       -0.58858       -0.74463       -0.16248
| 54>    C        0.65226       -2.71683       -0.81117
| 55>    C       -1.72404       -1.53242        0.04773
| 56>    H       -0.67657        0.31435        0.03425
| 57>    C       -1.67382       -2.90768       -0.17064
| 58>    H       -2.64555       -1.07363        0.38252
| 59>    C       -0.48796       -3.49819       -0.60274
| 60>    H        1.53513       -3.21499       -1.17418
| 61>    H       -0.45235       -4.56491       -0.78336
| 62>    H       -2.55515       -3.51500       -0.00968
| 63> *
| 64> 
| 65> 
| 66>                          ****END OF INPUT****
================================================================================

                       *****************************
                       * Geometry Optimization Run *
                       *****************************

Geometry optimization settings:
Update method            Update   .... BFGS
Choice of coordinates    CoordSys .... Z-matrix Internals
Initial Hessian          InHess   .... Almoef's Model

Convergence Tolerances:
Energy Change            TolE     ....  5.0000e-06 Eh
Max. Gradient            TolMAXG  ....  3.0000e-04 Eh/bohr
RMS Gradient             TolRMSG  ....  1.0000e-04 Eh/bohr
Max. Displacement        TolMAXD  ....  4.0000e-03 bohr
RMS Displacement         TolRMSD  ....  2.0000e-03 bohr
Strict Convergence                ....  False
------------------------------------------------------------------------------
                        ORCA OPTIMIZATION COORDINATE SETUP
------------------------------------------------------------------------------

The optimization will be done in new redundant internal coordinates
Making redundant internal coordinates   ...  (new redundants) done
Evaluating the initial hessian          ...  (Almloef) done
Evaluating the coordinates              ...  done
Calculating the B-matrix                .... done
Calculating the G-matrix                .... done
Diagonalizing the G-matrix              .... done
Small eigenvalue found = 2.046e-03
Small eigenvalue found = 2.923e-03
Small eigenvalue found = 6.975e-03
Small eigenvalue found = 1.296e-02
Small eigenvalue found = 1.824e-02
Small eigenvalue found = 1.867e-02
Small eigenvalue found = 2.491e-02
The first mode is                       ....  122
The number of degrees of freedom        ....  144

    -----------------------------------------------------------------
                    Redundant Internal Coordinates


    -----------------------------------------------------------------
         Definition                    Initial Value    Approx d2E/dq
    -----------------------------------------------------------------
      1. B(O   1,C   0)                  1.3794         0.581713   
      2. B(H   2,C   0)                  1.1092         0.335522   
      3. B(H   3,C   0)                  1.1109         0.333470   
      4. B(H   4,C   0)                  1.1109         0.333502   
      5. B(C   5,O   1)                  1.3583         0.628760   
      6. B(C   6,C   5)                  1.3979         0.607036   
      7. B(C   7,C   5)                  1.4072         0.586498   
      8. B(C   8,C   7)                  1.3973         0.608269   
      9. B(H   9,C   7)                  1.0817         0.371269   
     10. B(C  10,C   6)                  1.3975         0.607875   
     11. B(H  11,C   6)                  1.0830         0.369463   
     12. B(C  12,C   8)                  1.4081         0.584562   
     13. B(C  12,C  10)                  1.4125         0.575282   
     14. B(H  13,C   8)                  1.0827         0.369845   
     15. B(H  14,C  10)                  1.0813         0.371735   
     16. B(C  15,C  12)                  1.5271         0.377624   
     17. B(C  16,C  15)                  1.5040         0.411051   
     18. B(C  17,C  15)                  1.5039         0.411218   
     19. B(H  18,C  15)                  1.1115         0.332702   
     20. B(C  19,C  16)                  1.3514         0.719861   
     21. B(H  20,C  16)                  1.0830         0.369520   
     22. B(C  21,C  17)                  1.3505         0.722485   
     23. B(H  22,C  17)                  1.0842         0.367872   
     24. B(N  23,C  21)                  1.4509         0.447345   
     25. B(N  23,C  19)                  1.4513         0.446755   
     26. B(C  24,N  23)                  1.4634         0.427270   
     27. B(H  25,C  24)                  1.1060         0.339561   
     28. B(H  26,C  24)                  1.1106         0.333795   
     29. B(H  27,C  24)                  1.1105         0.333976   
     30. B(C  28,C  19)                  1.5153         0.394351   
     31. B(C  29,C  28)                  1.4164         0.566968   
     32. B(C  30,C  29)                  1.3979         0.606841   
     33. B(H  31,C  29)                  1.0807         0.372619   
     34. B(C  32,C  28)                  1.4121         0.576083   
     35. B(C  33,C  32)                  1.3979         0.607011   
     36. B(H  34,C  32)                  1.0769         0.377834   
     37. B(C  35,C  33)                  1.3934         0.617004   
     38. B(C  35,C  30)                  1.3934         0.617003   
     39. B(H  36,C  30)                  1.0825         0.370142   
     40. B(H  37,C  35)                  1.0824         0.370303   
     41. B(H  38,C  33)                  1.0825         0.370155   
     42. B(C  39,C  21)                  1.5148         0.394971   
     43. B(C  40,C  39)                  1.4164         0.567085   
     44. B(C  41,C  39)                  1.4119         0.576410   
     45. B(C  42,C  40)                  1.3979         0.606967   
     46. B(H  43,C  40)                  1.0807         0.372634   
     47. B(C  44,C  42)                  1.3934         0.617054   
     48. B(H  45,C  42)                  1.0825         0.370193   
     49. B(C  46,C  44)                  1.3934         0.616949   
     50. B(C  46,C  41)                  1.3979         0.606969   
     51. B(H  47,C  41)                  1.0768         0.378056   
     52. B(H  48,C  46)                  1.0825         0.370174   
     53. B(H  49,C  44)                  1.0824         0.370359   
     54. A(H   2,C   0,H   4)          108.5929         0.284216   
     55. A(H   3,C   0,H   4)          110.1080         0.283945   
     56. A(O   1,C   0,H   4)          110.2315         0.342546   
     57. A(O   1,C   0,H   3)          110.2214         0.342541   
     58. A(H   2,C   0,H   3)          108.5848         0.284211   
     59. A(O   1,C   0,H   2)          109.0583         0.342893   
     60. A(C   0,O   1,C   5)          125.7804         0.424613   
     61. A(O   1,C   5,C   6)          118.3043         0.430677   
     62. A(C   6,C   5,C   7)          118.9887         0.428129   
     63. A(O   1,C   5,C   7)          122.7069         0.428026   
     64. A(C   5,C   6,H  11)          119.8306         0.353180   
     65. A(C   5,C   6,C  10)          120.7801         0.430888   
     66. A(C  10,C   6,H  11)          119.3893         0.353263   
     67. A(C   8,C   7,H   9)          118.4897         0.353593   
     68. A(C   5,C   7,C   8)          120.3604         0.428284   
     69. A(C   5,C   7,H   9)          121.1499         0.351419   
     70. A(C  12,C   8,H  13)          120.4132         0.350995   
     71. A(C   7,C   8,H  13)          118.5844         0.353363   
     72. A(C   7,C   8,C  12)          121.0017         0.428031   
     73. A(C  12,C  10,H  14)          121.5968         0.350349   
     74. A(C   6,C  10,H  14)          117.7092         0.353630   
     75. A(C   6,C  10,C  12)          120.6934         0.426755   
     76. A(C  10,C  12,C  15)          122.9348         0.392254   
     77. A(C   8,C  12,C  15)          118.8889         0.393354   
     78. A(C   8,C  12,C  10)          118.1756         0.423779   
     79. A(C  16,C  15,H  18)          107.4821         0.325197   
     80. A(C  12,C  15,H  18)          108.1990         0.320706   
     81. A(C  16,C  15,C  17)          112.3182         0.375511   
     82. A(C  12,C  15,C  17)          113.0232         0.370063   
     83. A(C  17,C  15,H  18)          105.6381         0.325219   
     84. A(C  12,C  15,C  16)          109.8646         0.370038   
     85. A(C  19,C  16,H  20)          120.4548         0.363582   
     86. A(C  15,C  16,H  20)          115.5036         0.330876   
     87. A(C  15,C  16,C  19)          124.0262         0.414223   
     88. A(C  21,C  17,H  22)          120.9631         0.363530   
     89. A(C  15,C  17,H  22)          114.8668         0.330653   
     90. A(C  15,C  17,C  21)          124.1600         0.414521   
     91. A(N  23,C  19,C  28)          122.2392         0.375829   
     92. A(C  16,C  19,C  28)          118.2328         0.411184   
     93. A(C  16,C  19,N  23)          119.5247         0.417685   
     94. A(C  17,C  21,N  23)          119.4477         0.418055   
     95. A(N  23,C  21,C  39)          122.3377         0.376017   
     96. A(C  17,C  21,C  39)          118.2137         0.411564   
     97. A(C  21,N  23,C  24)          118.3013         0.378765   
     98. A(C  19,N  23,C  24)          118.3402         0.378678   
     99. A(C  19,N  23,C  21)          120.0926         0.381705   
    100. A(H  26,C  24,H  27)          104.0220         0.284050   
    101. A(H  25,C  24,H  27)          109.1260         0.284808   
    102. A(N  23,C  24,H  27)          111.1883         0.325519   
    103. A(H  25,C  24,H  26)          109.2507         0.284784   
    104. A(N  23,C  24,H  26)          111.1383         0.325490   
    105. A(N  23,C  24,H  25)          111.8122         0.326409   
    106. A(C  29,C  28,C  32)          117.5457         0.421576   
    107. A(C  19,C  28,C  32)          121.0890         0.395340   
    108. A(C  19,C  28,C  29)          121.3539         0.394236   
    109. A(C  30,C  29,H  31)          117.2945         0.353670   
    110. A(C  28,C  29,H  31)          121.6706         0.349630   
    111. A(C  28,C  29,C  30)          121.0222         0.425515   
    112. A(C  29,C  30,H  36)          119.9414         0.353271   
    113. A(C  29,C  30,C  35)          120.2288         0.432018   
    114. A(C  35,C  30,H  36)          119.8298         0.354266   
    115. A(C  33,C  32,H  34)          117.4163         0.354521   
    116. A(C  28,C  32,H  34)          121.4308         0.351396   
    117. A(C  28,C  32,C  33)          121.1298         0.426753   
    118. A(C  32,C  33,C  35)          120.2322         0.432040   
    119. A(C  35,C  33,H  38)          119.8327         0.354268   
    120. A(C  32,C  33,H  38)          119.9340         0.353289   
    121. A(C  30,C  35,C  33)          119.8361         0.433310   
    122. A(C  33,C  35,H  37)          120.0819         0.354292   
    123. A(C  30,C  35,H  37)          120.0813         0.354292   
    124. A(C  40,C  39,C  41)          117.5562         0.421634   
    125. A(C  21,C  39,C  41)          121.1302         0.395488   
    126. A(C  21,C  39,C  40)          121.3025         0.394359   
    127. A(C  42,C  40,H  43)          117.3052         0.353685   
    128. A(C  39,C  40,H  43)          121.6597         0.349644   
    129. A(C  39,C  40,C  42)          121.0223         0.425546   
    130. A(C  46,C  41,H  47)          117.4174         0.354552   
    131. A(C  39,C  41,H  47)          121.4374         0.351465   
    132. A(C  39,C  41,C  46)          121.1215         0.426791   
    133. A(C  44,C  42,H  45)          119.8328         0.354279   
    134. A(C  40,C  42,H  45)          119.9431         0.353291   
    135. A(C  40,C  42,C  44)          120.2241         0.432041   
    136. A(C  46,C  44,H  49)          120.0860         0.354296   
    137. A(C  42,C  44,H  49)          120.0764         0.354306   
    138. A(C  42,C  44,C  46)          119.8369         0.433310   
    139. A(C  44,C  46,H  48)          119.8243         0.354266   
    140. A(C  41,C  46,H  48)          119.9409         0.353289   
    141. A(C  41,C  46,C  44)          120.2337         0.432028   
    142. D(C   5,O   1,C   0,H   3)     60.8673         0.027151   
    143. D(C   5,O   1,C   0,H   2)    179.9840         0.027151   
    144. D(C   5,O   1,C   0,H   4)    -60.8831         0.027151   
    145. D(C   6,C   5,O   1,C   0)   -179.8719         0.029065   
    146. D(C   7,C   5,O   1,C   0)      0.0783         0.029065   
    147. D(H  11,C   6,C   5,O   1)     -0.0580         0.025436   
    148. D(C  10,C   6,C   5,O   1)    179.9461         0.025436   
    149. D(C  10,C   6,C   5,C   7)     -0.0060         0.025436   
    150. D(H  11,C   6,C   5,C   7)    179.9899         0.025436   
    151. D(H   9,C   7,C   5,O   1)     -0.0642         0.023658   
    152. D(H   9,C   7,C   5,C   6)    179.8857         0.023658   
    153. D(C   8,C   7,C   5,O   1)   -179.9857         0.023658   
    154. D(C   8,C   7,C   5,C   6)     -0.0358         0.023658   
    155. D(C  12,C   8,C   7,C   5)     -0.0225         0.025545   
    156. D(C  12,C   8,C   7,H   9)   -179.9460         0.025545   
    157. D(H  13,C   8,C   7,C   5)    179.6720         0.025545   
    158. D(H  13,C   8,C   7,H   9)     -0.2515         0.025545   
    159. D(H  14,C  10,C   6,H  11)     -0.1849         0.025510   
    160. D(C  12,C  10,C   6,H  11)   -179.8896         0.025510   
    161. D(H  14,C  10,C   6,C   5)    179.8109         0.025510   
    162. D(C  12,C  10,C   6,C   5)      0.1063         0.025510   
    163. D(C  10,C  12,C   8,C   7)      0.1193         0.023494   
    164. D(C  15,C  12,C  10,H  14)      0.4391         0.022721   
    165. D(C   8,C  12,C  10,H  14)   -179.8537         0.022721   
    166. D(C  15,C  12,C  10,C   6)   -179.8679         0.022721   
    167. D(C  15,C  12,C   8,H  13)      0.1497         0.023494   
    168. D(C  15,C  12,C   8,C   7)    179.8386         0.023494   
    169. D(C  10,C  12,C   8,H  13)   -179.5696         0.023494   
    170. D(C   8,C  12,C  10,C   6)     -0.1607         0.022721   
    171. D(C  16,C  15,C  12,C   8)     61.9293         0.010649   
    172. D(C  16,C  15,C  12,C  10)   -118.3655         0.010649   
    173. D(H  18,C  15,C  12,C  10)    124.5686         0.010649   
    174. D(H  18,C  15,C  12,C   8)    -55.1366         0.010649   
    175. D(C  17,C  15,C  12,C  10)      7.9517         0.010649   
    176. D(C  17,C  15,C  12,C   8)   -171.7535         0.010649   
    177. D(H  20,C  16,C  15,H  18)     57.9493         0.012512   
    178. D(H  20,C  16,C  15,C  17)    173.7212         0.012512   
    179. D(H  20,C  16,C  15,C  12)    -59.5638         0.012512   
    180. D(C  19,C  16,C  15,H  18)   -120.6240         0.012512   
    181. D(C  19,C  16,C  15,C  17)     -4.8521         0.012512   
    182. D(C  19,C  16,C  15,C  12)    121.8629         0.012512   
    183. D(H  22,C  17,C  15,C  16)   -174.0402         0.012521   
    184. D(H  22,C  17,C  15,C  12)     60.9617         0.012521   
    185. D(C  21,C  17,C  15,H  18)    121.6865         0.012521   
    186. D(C  21,C  17,C  15,C  16)      4.8064         0.012521   
    187. D(H  22,C  17,C  15,H  18)    -57.1601         0.012521   
    188. D(C  21,C  17,C  15,C  12)   -120.1917         0.012521   
    189. D(C  28,C  19,C  16,H  20)      0.7655         0.036675   
    190. D(C  28,C  19,C  16,C  15)    179.2718         0.036675   
    191. D(N  23,C  19,C  16,H  20)   -178.5945         0.036675   
    192. D(N  23,C  19,C  16,C  15)     -0.0883         0.036675   
    193. D(C  39,C  21,C  17,H  22)     -0.7084         0.036967   
    194. D(C  39,C  21,C  17,C  15)   -179.4880         0.036967   
    195. D(N  23,C  21,C  17,H  22)    178.9641         0.036967   
    196. D(N  23,C  21,C  17,C  15)      0.1845         0.036967   
    197. D(C  24,N  23,C  21,C  39)    -26.7673         0.015759   
    198. D(C  19,N  23,C  21,C  39)    173.9736         0.015759   
    199. D(C  19,N  23,C  21,C  17)     -5.6849         0.015759   
    200. D(C  24,N  23,C  21,C  17)    153.5742         0.015759   
    201. D(C  24,N  23,C  19,C  28)     27.0543         0.015718   
    202. D(C  24,N  23,C  19,C  16)   -153.6123         0.015718   
    203. D(C  21,N  23,C  19,C  28)   -173.6945         0.015718   
    204. D(C  21,N  23,C  19,C  16)      5.6389         0.015718   
    205. D(H  27,C  24,N  23,C  21)   -137.9891         0.015565   
    206. D(H  27,C  24,N  23,C  19)     21.6376         0.015565   
    207. D(H  26,C  24,N  23,C  21)    -22.6176         0.015565   
    208. D(H  26,C  24,N  23,C  19)    137.0090         0.015565   
    209. D(H  25,C  24,N  23,C  21)     99.7592         0.015565   
    210. D(H  25,C  24,N  23,C  19)   -100.6142         0.015565   
    211. D(C  32,C  28,C  19,N  23)     30.1900         0.010711   
    212. D(C  32,C  28,C  19,C  16)   -149.1517         0.010711   
    213. D(C  29,C  28,C  19,N  23)   -151.0681         0.010711   
    214. D(C  29,C  28,C  19,C  16)     29.5903         0.010711   
    215. D(H  31,C  29,C  28,C  32)   -179.5185         0.022041   
    216. D(H  31,C  29,C  28,C  19)      1.6966         0.022041   
    217. D(C  30,C  29,C  28,C  32)     -0.8541         0.022041   
    218. D(C  30,C  29,C  28,C  19)   -179.6390         0.022041   
    219. D(H  36,C  30,C  29,H  31)     -0.7360         0.025418   
    220. D(H  36,C  30,C  29,C  28)   -179.4570         0.025418   
    221. D(C  35,C  30,C  29,H  31)    179.1839         0.025418   
    222. D(C  35,C  30,C  29,C  28)      0.4630         0.025418   
    223. D(H  34,C  32,C  28,C  29)   -177.5347         0.022787   
    224. D(H  34,C  32,C  28,C  19)      1.2537         0.022787   
    225. D(C  33,C  32,C  28,C  29)      0.6744         0.022787   
    226. D(C  33,C  32,C  28,C  19)    179.4627         0.022787   
    227. D(H  38,C  33,C  32,H  34)     -1.4396         0.025433   
    228. D(H  38,C  33,C  32,C  28)   -179.7181         0.025433   
    229. D(C  35,C  33,C  32,H  34)    178.1767         0.025433   
    230. D(C  35,C  33,C  32,C  28)     -0.1018         0.025433   
    231. D(H  37,C  35,C  33,H  38)     -0.4046         0.026328   
    232. D(H  37,C  35,C  33,C  32)    179.9786         0.026328   
    233. D(C  30,C  35,C  33,H  38)    179.3001         0.026328   
    234. D(C  30,C  35,C  33,C  32)     -0.3167         0.026328   
    235. D(H  37,C  35,C  30,H  36)     -0.2381         0.026327   
    236. D(H  37,C  35,C  30,C  29)    179.8418         0.026327   
    237. D(C  33,C  35,C  30,H  36)   -179.9428         0.026327   
    238. D(C  33,C  35,C  30,C  29)      0.1371         0.026327   
    239. D(C  41,C  39,C  21,N  23)    -30.4235         0.010742   
    240. D(C  41,C  39,C  21,C  17)    149.2390         0.010742   
    241. D(C  40,C  39,C  21,N  23)    150.8164         0.010742   
    242. D(C  40,C  39,C  21,C  17)    -29.5211         0.010742   
    243. D(H  43,C  40,C  39,C  41)    179.5175         0.022050   
    244. D(H  43,C  40,C  39,C  21)     -1.6796         0.022050   
    245. D(C  42,C  40,C  39,C  41)      0.8592         0.022050   
    246. D(C  42,C  40,C  39,C  21)    179.6620         0.022050   
    247. D(H  47,C  41,C  39,C  40)    177.5089         0.022814   
    248. D(H  47,C  41,C  39,C  21)     -1.2961         0.022814   
    249. D(C  46,C  41,C  39,C  40)     -0.6733         0.022814   
    250. D(C  46,C  41,C  39,C  21)   -179.4783         0.022814   
    251. D(H  45,C  42,C  40,H  43)      0.7364         0.025430   
    252. D(H  45,C  42,C  40,C  39)    179.4512         0.025430   
    253. D(C  44,C  42,C  40,H  43)   -179.1839         0.025430   
    254. D(C  44,C  42,C  40,C  39)     -0.4691         0.025430   
    255. D(H  49,C  44,C  42,H  45)      0.2435         0.026332   
    256. D(H  49,C  44,C  42,C  40)   -179.8360         0.026332   
    257. D(C  46,C  44,C  42,H  45)    179.9435         0.026332   
    258. D(C  46,C  44,C  42,C  40)     -0.1361         0.026332   
    259. D(H  48,C  46,C  44,H  49)      0.4083         0.026323   
    260. D(H  48,C  46,C  44,C  42)   -179.2916         0.026323   
    261. D(C  41,C  46,C  44,H  49)   -179.9784         0.026323   
    262. D(C  41,C  46,C  44,C  42)      0.3217         0.026323   
    263. D(H  48,C  46,C  41,H  47)      1.4557         0.025430   
    264. D(H  48,C  46,C  41,C  39)    179.7085         0.025430   
    265. D(C  44,C  46,C  41,H  47)   -178.1572         0.025430   
    266. D(C  44,C  46,C  41,C  39)      0.0956         0.025430   
    -----------------------------------------------------------------

Number of atoms                         .... 50
Number of degrees of freedom            .... 266

         *************************************************************
         *                GEOMETRY OPTIMIZATION CYCLE   1            *
         *************************************************************
---------------------------------
CARTESIAN COORDINATES (ANGSTROEM)
---------------------------------
  C      3.564150    7.561000    1.644620
  O      2.764700    6.444990    1.779830
  H      3.304210    8.291060    2.438260
  H      3.394120    8.037610    0.655650
  H      4.633930    7.282970    1.755710
  C      2.798060    5.343300    0.986050
  C      1.911490    4.298950    1.264100
  C      3.684680    5.214550   -0.099120
  C      3.676830    4.058710   -0.884240
  H      4.384030    6.001730   -0.346710
  C      1.900730    3.142140    0.480130
  H      1.223340    4.383560    2.096090
  C      2.787790    3.001720   -0.610050
  H      4.367570    3.992320   -1.715370
  H      1.196670    2.364140    0.741510
  C      2.817930    1.762280   -1.501570
  C      4.165220    1.100080   -1.410760
  C      1.691680    0.806710   -1.218620
  H      2.676560    2.088620   -2.554680
  C      4.354140   -0.179280   -1.018390
  H      5.007050    1.713020   -1.708170
  C      1.864270   -0.473920   -0.826280
  H      0.698710    1.214260   -1.371510
  N      3.208490   -0.992000   -0.653350
  C      3.410990   -2.096480    0.285150
  H      3.478230   -3.070370   -0.234680
  H      2.594390   -2.138210    1.036790
  H      4.328150   -1.944110    0.892450
  C      5.769770   -0.718970   -0.990800
  C      6.877470    0.129730   -0.747890
  C      8.181280   -0.374290   -0.731380
  H      6.751190    1.184130   -0.547390
  C      6.034280   -2.084770   -1.232960
  C      7.340860   -2.581420   -1.218690
  H      5.242860   -2.777790   -1.463440
  C      8.412980   -1.728300   -0.965010
  H      9.014340    0.288560   -0.535230
  H      9.423680   -2.115530   -0.954200
  H      7.521860   -3.631140   -1.411410
  C      0.632060   -1.322580   -0.589270
  C     -0.588580   -0.744630   -0.162480
  C      0.652260   -2.716830   -0.811170
  C     -1.724040   -1.532420    0.047730
  H     -0.676570    0.314350    0.034250
  C     -1.673820   -2.907680   -0.170640
  H     -2.645550   -1.073630    0.382520
  C     -0.487960   -3.498190   -0.602740
  H      1.535130   -3.214990   -1.174180
  H     -0.452350   -4.564910   -0.783360
  H     -2.555150   -3.515000   -0.009680

----------------------------
CARTESIAN COORDINATES (A.U.)
----------------------------
  NO LB      ZA    FRAG     MASS         X           Y           Z
   0 C     6.0000    0    12.011    6.735267   14.288219    3.107881
   1 O     8.0000    0    15.999    5.224526   12.179266    3.363391
   2 H     1.0000    0     1.008    6.244052   15.667833    4.607644
   3 H     1.0000    0     1.008    6.413957   15.188882    1.238999
   4 H     1.0000    0     1.008    8.756859   13.762819    3.317811
   5 C     6.0000    0    12.011    5.287567   10.097374    1.863364
   6 C     6.0000    0    12.011    3.612193    8.123838    2.388803
   7 C     6.0000    0    12.011    6.963036    9.854071   -0.187310
   8 C     6.0000    0    12.011    6.948202    7.669850   -1.670971
   9 H     1.0000    0     1.008    8.284616   11.341626   -0.655187
  10 C     6.0000    0    12.011    3.591859    5.937784    0.907314
  11 H     1.0000    0     1.008    2.311778    8.283728    3.961036
  12 C     6.0000    0    12.011    5.268160    5.672429   -1.152827
  13 H     1.0000    0     1.008    8.253511    7.544391   -3.241580
  14 H     1.0000    0     1.008    2.261379    4.467577    1.401251
  15 C     6.0000    0    12.011    5.325116    3.330227   -2.837556
  16 C     6.0000    0    12.011    7.871125    2.078850   -2.665950
  17 C     6.0000    0    12.011    3.196812    1.524461   -2.302858
  18 H     1.0000    0     1.008    5.057965    3.946920   -4.827646
  19 C     6.0000    0    12.011    8.228132   -0.338790   -1.924478
  20 H     1.0000    0     1.008    9.461953    3.237139   -3.227973
  21 C     6.0000    0    12.011    3.522960   -0.895579   -1.561443
  22 H     1.0000    0     1.008    1.320371    2.294619   -2.591778
  23 N     7.0000    0    14.007    6.063167   -1.874608   -1.234653
  24 C     6.0000    0    12.011    6.445837   -3.961773    0.538855
  25 H     1.0000    0     1.008    6.572902   -5.802158   -0.443481
  26 H     1.0000    0     1.008    4.902687   -4.040631    1.959249
  27 H     1.0000    0     1.008    8.179018   -3.673835    1.686486
  28 C     6.0000    0    12.011   10.903285   -1.358656   -1.872341
  29 C     6.0000    0    12.011   12.996535    0.245154   -1.413307
  30 C     6.0000    0    12.011   15.460379   -0.707306   -1.382108
  31 H     1.0000    0     1.008   12.757900    2.237681   -1.034417
  32 C     6.0000    0    12.011   11.403137   -3.939644   -2.329957
  33 C     6.0000    0    12.011   13.872215   -4.878177   -2.302990
  34 H     1.0000    0     1.008    9.907570   -5.249262   -2.765501
  35 C     6.0000    0    12.011   15.898228   -3.266014   -1.823605
  36 H     1.0000    0     1.008   17.034634    0.545299   -1.011438
  37 H     1.0000    0     1.008   17.808174   -3.997772   -1.803177
  38 H     1.0000    0     1.008   14.214255   -6.861860   -2.667178
  39 C     6.0000    0    12.011    1.194420   -2.499314   -1.113559
  40 C     6.0000    0    12.011   -1.112255   -1.407147   -0.307043
  41 C     6.0000    0    12.011    1.232593   -5.134065   -1.532889
  42 C     6.0000    0    12.011   -3.257963   -2.895854    0.090197
  43 H     1.0000    0     1.008   -1.278532    0.594035    0.064723
  44 C     6.0000    0    12.011   -3.163061   -5.494719   -0.322463
  45 H     1.0000    0     1.008   -4.999365   -2.028867    0.722858
  46 C     6.0000    0    12.011   -0.922111   -6.610621   -1.139014
  47 H     1.0000    0     1.008    2.900975   -6.075451   -2.218879
  48 H     1.0000    0     1.008   -0.854818   -8.626430   -1.480336
  49 H     1.0000    0     1.008   -4.828534   -6.642387   -0.018293

--------------------------------
INTERNAL COORDINATES (ANGSTROEM)
--------------------------------
 C      0   0   0     0.000000000000     0.00000000     0.00000000
 O      1   0   0     1.379449298343     0.00000000     0.00000000
 H      1   2   0     1.109243371312   109.05825257     0.00000000
 H      1   2   3     1.110913567250   110.22142742   240.88322934
 H      1   2   3     1.110887445874   110.23153489   119.13282356
 C      2   1   3     1.358278481792   125.78036230   179.98404000
 C      6   2   1     1.397850167185   118.30433500   180.12807074
 C      6   2   1     1.407219071716   122.70689725     0.07829512
 C      8   6   2     1.397297800220   120.36037418   180.01431891
 H      8   6   2     1.081685528700   121.14989578   359.93578624
 C      7   6   2     1.397474191032   120.78006544   179.94611884
 H      7   6   2     1.083012758327   119.83061377   359.94198959
 C      9   8   6     1.408119362057   121.00165934     0.00000000
 H      9   8   6     1.082731017659   118.58442512   179.67201211
 H     11   7   6     1.081343603116   117.70915740   179.81094839
 C     13   9   8     1.527065107846   118.88894934   179.83856877
 C     16  13   9     1.503976608927   109.86461048    61.92929867
 C     16  13   9     1.503866280591   113.02320856   188.24654524
 H     16  13   9     1.111541247368   108.19903670   304.86343324
 C     17  16  13     1.351446259716   124.02616549   121.86289138
 H     17  16  13     1.082970867845   115.50358521   300.43621403
 C     18  16  13     1.350455915830   124.15998850   239.80829441
 H     18  16  13     1.084187149666   114.86677826    60.96172307
 N     22  18  16     1.450944202821   119.44768807     0.18450291
 C     24  22  18     1.463442711690   118.30128439   153.57418681
 H     25  24  22     1.105986518272   111.81224045    99.75918682
 H     25  24  22     1.110648298292   111.13833785   337.38236570
 H     25  24  22     1.110500955650   111.18829772   222.01094922
 C     20  17  16     1.515267237520   118.23281895   179.27175130
 C     29  20  17     1.416437873011   121.35393571    29.59027147
 C     30  29  20     1.397937500963   121.02216211   180.36098820
 H     30  29  20     1.080697112238   121.67060543     1.69656502
 C     29  20  17     1.412096542627   121.08897595   210.84828253
 C     33  29  20     1.397861277738   121.12981861   179.46272497
 H     33  29  20     1.076913816050   121.43084377     1.25365309
 C     34  33  29     1.393416151478   120.23216884   359.89822043
 H     31  30  29     1.082512775259   119.94135224   180.54304382
 H     36  34  33     1.082394761166   120.08193716   179.97864962
 H     34  33  29     1.082503615144   119.93397398   180.28186979
 C     22  18  16     1.514839602004   118.21374072   180.51196847
 C     40  22  18     1.416381981035   121.30248355   330.47890106
 C     40  22  18     1.411942177463   121.13021026   149.23900606
 C     41  40  22     1.397880803145   121.02225793   179.66204329
 H     41  40  22     1.080686621274   121.65966067   358.32036252
 C     43  41  40     1.393394263265   120.22409710   359.53085400
 H     43  41  40     1.082475537045   119.94308496   179.45122189
 C     45  43  41     1.393440493778   119.83692893   359.86393001
 H     42  40  22     1.076753956389   121.43740793   358.70387849
 H     47  45  43     1.082489360179   119.82431370   180.70839402
 H     45  43  41     1.082353118395   120.07641974   180.16400352

---------------------------
INTERNAL COORDINATES (A.U.)
---------------------------
 C      0   0   0     0.000000000000     0.00000000     0.00000000
 O      1   0   0     2.606781389499     0.00000000     0.00000000
 H      1   2   0     2.096166187648   109.05825257     0.00000000
 H      1   2   3     2.099322400560   110.22142742   240.88322934
 H      1   2   3     2.099273038313   110.23153489   119.13282356
 C      2   1   3     2.566774344186   125.78036230   179.98404000
 C      6   2   1     2.641553992236   118.30433500   180.12807074
 C      6   2   1     2.659258655973   122.70689725     0.07829512
 C      8   6   2     2.640510169947   120.36037418   180.01431891
 H      8   6   2     2.044089412270   121.14989578   359.93578624
 C      7   6   2     2.640843500273   120.78006544   179.94611884
 H      7   6   2     2.046597512781   119.83061377   359.94198959
 C      9   8   6     2.660959958160   121.00165934     0.00000000
 H      9   8   6     2.046065100077   118.58442512   179.67201211
 H     11   7   6     2.043443266557   117.70915740   179.81094839
 C     13   9   8     2.885734842495   118.88894934   179.83856877
 C     16  13   9     2.842103902696   109.86461048    61.92929867
 C     16  13   9     2.841895412357   113.02320856   188.24654524
 H     16  13   9     2.100508544082   108.19903670   304.86343324
 C     17  16  13     2.553863315575   124.02616549   121.86289138
 H     17  16  13     2.046518351241   115.50358521   300.43621403
 C     18  16  13     2.551991836852   124.15998850   239.80829441
 H     18  16  13     2.048816790785   114.86677826    60.96172307
 N     22  18  16     2.741887178932   119.44768807     0.18450291
 C     24  22  18     2.765505937778   118.30128439   153.57418681
 H     25  24  22     2.090011627344   111.81224045    99.75918682
 H     25  24  22     2.098821114878   111.13833785   337.38236570
 H     25  24  22     2.098542677637   111.18829772   222.01094922
 C     20  17  16     2.863440098615   118.23281895   179.27175130
 C     29  20  17     2.676679665705   121.35393571    29.59027147
 C     30  29  20     2.641719029159   121.02216211   180.36098820
 H     30  29  20     2.042221575850   121.67060543     1.69656502
 C     29  20  17     2.668475740223   121.08897595   210.84828253
 C     33  29  20     2.641574988139   121.12981861   179.46272497
 H     33  29  20     2.035072182171   121.43084377     1.25365309
 C     34  33  29     2.633174916876   120.23216884   359.89822043
 H     31  30  29     2.045652681711   119.94135224   180.54304382
 H     36  34  33     2.045429667395   120.08193716   179.97864962
 H     34  33  29     2.045635371602   119.93397398   180.28186979
 C     22  18  16     2.862631984606   118.21374072   180.51196847
 C     40  22  18     2.676574045177   121.30248355   330.47890106
 C     40  22  18     2.668184032338   121.13021026   149.23900606
 C     41  40  22     2.641611885809   121.02225793   179.66204329
 H     41  40  22     2.042201750800   121.65966067   358.32036252
 C     43  41  40     2.633133554148   120.22409710   359.53085400
 H     43  41  40     2.045582311684   119.94308496   179.45122189
 C     45  43  41     2.633220917156   119.83692893   359.86393001
 H     42  40  22     2.034770091192   121.43740793   358.70387849
 H     47  45  43     2.045608433621   119.82431370   180.70839402
 H     45  43  41     2.045350973963   120.07641974   180.16400352

---------------------
BASIS SET INFORMATION
---------------------
There are 4 groups of distinct atoms

 Group   1 Type C   : 11s6p2d1f contracted to 5s3p2d1f pattern {62111/411/11/1}
 Group   2 Type O   : 11s6p2d1f contracted to 5s3p2d1f pattern {62111/411/11/1}
 Group   3 Type H   : 5s1p contracted to 3s1p pattern {311/1}
 Group   4 Type N   : 11s6p2d1f contracted to 5s3p2d1f pattern {62111/411/11/1}

Atom   0C    basis set group =>   1
Atom   1O    basis set group =>   2
Atom   2H    basis set group =>   3
Atom   3H    basis set group =>   3
Atom   4H    basis set group =>   3
Atom   5C    basis set group =>   1
Atom   6C    basis set group =>   1
Atom   7C    basis set group =>   1
Atom   8C    basis set group =>   1
Atom   9H    basis set group =>   3
Atom  10C    basis set group =>   1
Atom  11H    basis set group =>   3
Atom  12C    basis set group =>   1
Atom  13H    basis set group =>   3
Atom  14H    basis set group =>   3
Atom  15C    basis set group =>   1
Atom  16C    basis set group =>   1
Atom  17C    basis set group =>   1
Atom  18H    basis set group =>   3
Atom  19C    basis set group =>   1
Atom  20H    basis set group =>   3
Atom  21C    basis set group =>   1
Atom  22H    basis set group =>   3
Atom  23N    basis set group =>   4
Atom  24C    basis set group =>   1
Atom  25H    basis set group =>   3
Atom  26H    basis set group =>   3
Atom  27H    basis set group =>   3
Atom  28C    basis set group =>   1
Atom  29C    basis set group =>   1
Atom  30C    basis set group =>   1
Atom  31H    basis set group =>   3
Atom  32C    basis set group =>   1
Atom  33C    basis set group =>   1
Atom  34H    basis set group =>   3
Atom  35C    basis set group =>   1
Atom  36H    basis set group =>   3
Atom  37H    basis set group =>   3
Atom  38H    basis set group =>   3
Atom  39C    basis set group =>   1
Atom  40C    basis set group =>   1
Atom  41C    basis set group =>   1
Atom  42C    basis set group =>   1
Atom  43H    basis set group =>   3
Atom  44C    basis set group =>   1
Atom  45H    basis set group =>   3
Atom  46C    basis set group =>   1
Atom  47H    basis set group =>   3
Atom  48H    basis set group =>   3
Atom  49H    basis set group =>   3
---------------------------------
AUXILIARY/J BASIS SET INFORMATION
---------------------------------
There are 4 groups of distinct atoms

 Group   1 Type C   : 12s5p4d2f1g contracted to 6s4p3d1f1g pattern {711111/2111/211/2/1}
 Group   2 Type O   : 12s5p4d2f1g contracted to 6s4p3d1f1g pattern {711111/2111/211/2/1}
 Group   3 Type H   : 5s2p1d contracted to 3s1p1d pattern {311/2/1}
 Group   4 Type N   : 12s5p4d2f1g contracted to 6s4p3d1f1g pattern {711111/2111/211/2/1}

Atom   0C    basis set group =>   1
Atom   1O    basis set group =>   2
Atom   2H    basis set group =>   3
Atom   3H    basis set group =>   3
Atom   4H    basis set group =>   3
Atom   5C    basis set group =>   1
Atom   6C    basis set group =>   1
Atom   7C    basis set group =>   1
Atom   8C    basis set group =>   1
Atom   9H    basis set group =>   3
Atom  10C    basis set group =>   1
Atom  11H    basis set group =>   3
Atom  12C    basis set group =>   1
Atom  13H    basis set group =>   3
Atom  14H    basis set group =>   3
Atom  15C    basis set group =>   1
Atom  16C    basis set group =>   1
Atom  17C    basis set group =>   1
Atom  18H    basis set group =>   3
Atom  19C    basis set group =>   1
Atom  20H    basis set group =>   3
Atom  21C    basis set group =>   1
Atom  22H    basis set group =>   3
Atom  23N    basis set group =>   4
Atom  24C    basis set group =>   1
Atom  25H    basis set group =>   3
Atom  26H    basis set group =>   3
Atom  27H    basis set group =>   3
Atom  28C    basis set group =>   1
Atom  29C    basis set group =>   1
Atom  30C    basis set group =>   1
Atom  31H    basis set group =>   3
Atom  32C    basis set group =>   1
Atom  33C    basis set group =>   1
Atom  34H    basis set group =>   3
Atom  35C    basis set group =>   1
Atom  36H    basis set group =>   3
Atom  37H    basis set group =>   3
Atom  38H    basis set group =>   3
Atom  39C    basis set group =>   1
Atom  40C    basis set group =>   1
Atom  41C    basis set group =>   1
Atom  42C    basis set group =>   1
Atom  43H    basis set group =>   3
Atom  44C    basis set group =>   1
Atom  45H    basis set group =>   3
Atom  46C    basis set group =>   1
Atom  47H    basis set group =>   3
Atom  48H    basis set group =>   3
Atom  49H    basis set group =>   3
--------------------------------------------------------------------------
[[25779,1],2]: A high-performance Open MPI point-to-point messaging module
was unable to find any relevant network interfaces:

Module: OpenFabrics (openib)
  Host: compute-0-14

Another transport will be used instead, although this may result in
lower performance.

NOTE: You can disable this warning by setting the MCA parameter
btl_base_warn_component_unused to 0.
--------------------------------------------------------------------------


           ************************************************************
           *        Program running with 4 parallel MPI-processes     *
           *              working on a common directory               *
           ************************************************************
------------------------------------------------------------------------------
                           ORCA GTO INTEGRAL CALCULATION
------------------------------------------------------------------------------

                         BASIS SET STATISTICS AND STARTUP INFO

 # of primitive gaussian shells          ...  678
 # of primitive gaussian functions       ... 1426
 # of contracted shells                  ...  389
 # of contracted basis functions         ...  975
 Highest angular momentum                ...    3
 Maximum contraction depth               ...    6
 Integral package used                   ... LIBINT
 Integral threshhold            Thresh   ...  2.500e-11
 Primitive cut-off              TCut     ...  2.500e-12


------------------------------ INTEGRAL EVALUATION ----------------------------


 * One electron integrals 
 Pre-screening matrix                    ... done
 Shell pair data                         ... done (   0.022 sec)

[compute-0-14.local:27611] 3 more processes have sent help message help-mpi-btl-base.txt / btl:no-nics
[compute-0-14.local:27611] Set MCA parameter "orte_base_help_aggregate" to 0 to see all help / error messages
--------------------------------------------------------------------------
[[25759,1],1]: A high-performance Open MPI point-to-point messaging module
was unable to find any relevant network interfaces:

Module: OpenFabrics (openib)
  Host: compute-0-14

Another transport will be used instead, although this may result in
lower performance.

NOTE: You can disable this warning by setting the MCA parameter
btl_base_warn_component_unused to 0.
--------------------------------------------------------------------------


           ************************************************************
           *        Program running with 4 parallel MPI-processes     *
           *              working on a common directory               *
           ************************************************************
-------------------------------------------------------------------------------
                                 ORCA SCF
-------------------------------------------------------------------------------

------------
SCF SETTINGS
------------
Hamiltonian:
 Density Functional     Method          .... DFT(GTOs)
 Exchange Functional    Exchange        .... WB97X-D3
 Correlation Functional Correlation     .... WB97X-D3
 Gradients option       PostSCFGGA      .... off
 Hybrid DFT is turned on
   Fraction HF Exchange ScalHFX         ....  0.195728
   Scaling of DF-GGA-X  ScalDFX         ....  0.000000
   Scaling of DF-GGA-C  ScalDFC         ....  1.000000
   Scaling of DF-LDA-C  ScalLDAC        ....  1.000000
   Perturbative correction              ....  0.000000
   Density functional embedding theory  .... OFF
 Long-range corrected/Screened/Range-Separated Hybrid DFT is turned on
   Amount of maximum screened exact exchange              ....  0.804272
   Range separation parameter mu (erf(mu*r12)/r12)        ....  0.250000


General Settings:
 Integral files         IntName         .... DPDHP
 Hartree-Fock type      HFTyp           .... RHF
 Total Charge           Charge          ....    0
 Multiplicity           Mult            ....    1
 Number of Electrons    NEL             ....  188
 Basis Dimension        Dim             ....  975
 Nuclear Repulsion      ENuc            ....   2222.3708330817 Eh

Convergence Acceleration:
 DIIS                   CNVDIIS         .... on
   Start iteration      DIISMaxIt       ....    12
   Startup error        DIISStart       ....  0.200000
   # of expansion vecs  DIISMaxEq       ....     5
   Bias factor          DIISBfac        ....   1.050
   Max. coefficient     DIISMaxC        ....  10.000
 Newton-Raphson         CNVNR           .... off
 SOSCF                  CNVSOSCF        .... on
   Start iteration      SOSCFMaxIt      ....   150
   Startup grad/error   SOSCFStart      ....  0.003300
 Level Shifting         CNVShift        .... on
   Level shift para.    LevelShift      ....    0.2500
   Turn off err/grad.   ShiftErr        ....    0.0010
 Zerner damping         CNVZerner       .... off
 Static damping         CNVDamp         .... on
   Fraction old density DampFac         ....    0.7000
   Max. Damping (<1)    DampMax         ....    0.9800
   Min. Damping (>=0)   DampMin         ....    0.0000
   Turn off err/grad.   DampErr         ....    0.1000
 Fernandez-Rico         CNVRico         .... off

SCF Procedure:
 Maximum # iterations   MaxIter         ....   125
 SCF integral mode      SCFMode         .... Direct
   Integral package                     .... LIBINT
 Reset frequency        DirectResetFreq ....    20
 Integral Threshold     Thresh          ....  2.500e-11 Eh
 Primitive CutOff       TCut            ....  2.500e-12 Eh

Convergence Tolerance:
 Convergence Check Mode ConvCheckMode   .... Total+1el-Energy
 Convergence forced     ConvForced      .... 0
 Energy Change          TolE            ....  1.000e-08 Eh
 1-El. energy change                    ....  1.000e-05 Eh
 Orbital Gradient       TolG            ....  1.000e-05
 Orbital Rotation angle TolX            ....  1.000e-05
 DIIS Error             TolErr          ....  5.000e-07


Diagonalization of the overlap matrix:
Smallest eigenvalue                        ... 7.521e-06
Time for diagonalization                   ...    0.610 sec
Threshold for overlap eigenvalues          ... 1.000e-08
Number of eigenvalues below threshold      ... 0
Time for construction of square roots      ...    0.181 sec
Total time needed                          ...    0.798 sec

-------------------
DFT GRID GENERATION
-------------------

General Integration Accuracy     IntAcc      ...  4.340
Radial Grid Type                 RadialGrid  ... Gauss-Chebyshev
Angular Grid (max. acc.)         AngularGrid ... Lebedev-110
Angular grid pruning method      GridPruning ... 3 (G Style)
Weight generation scheme         WeightScheme... Becke
Basis function cutoff            BFCut       ...    1.0000e-11
Integration weight cutoff        WCut        ...    1.0000e-14
Grids for H and He will be reduced by one unit

# of grid points (after initial pruning)     ...  63080 (   0.0 sec)
# of grid points (after weights+screening)   ...  55903 (   0.4 sec)
nearest neighbour list constructed           ...    0.0 sec
Grid point re-assignment to atoms done       ...    0.0 sec
Grid point division into batches done        ...    0.1 sec
Reduced shell lists constructed in    0.5 sec

Total number of grid points                  ...    55903
Total number of batches                      ...      897
Average number of points per batch           ...       62
Average number of grid points per atom       ...     1118
Average number of shells per batch           ...   133.55 (34.33%)
Average number of basis functions per batch  ...   320.07 (32.83%)
Average number of large shells per batch     ...    84.25 (63.09%)
Average number of large basis fcns per batch ...   208.95 (65.28%)
Maximum spatial batch extension              ...  27.05, 16.89, 20.81 au
Average spatial batch extension              ...   0.95,  0.83,  0.90 au

Time for grid setup =    1.058 sec

------------------------------
INITIAL GUESS: MODEL POTENTIAL
------------------------------
Loading Hartree-Fock densities                     ... done
Calculating cut-offs                               ... done
Setting up the integral package                    ... done
Initializing the effective Hamiltonian             ... done
Starting the Coulomb interaction                   ... done (   1.6 sec)
Reading the grid                                   ... done
Mapping shells                                     ... done
Starting the XC term evaluation                    ... [compute-0-14.local:27639] 3 more processes have sent help message help-mpi-btl-base.txt / btl:no-nics
[compute-0-14.local:27639] Set MCA parameter "orte_base_help_aggregate" to 0 to see all help / error messages
done (   1.3 sec)
  promolecular density results
     # of electrons  =    188.003959087
     EX              =   -149.310511431
     EC              =     -6.274562307
     EX+EC           =   -155.585073739
Transforming the Hamiltonian                       ... done (   0.2 sec)
Diagonalizing the Hamiltonian                      ... done (   0.5 sec)
Back transforming the eigenvectors                 ... done (   0.1 sec)
Now organizing SCF variables                       ... done
                      ------------------
                      INITIAL GUESS DONE (   5.0 sec)
                      ------------------

--------------------
CPCM SOLVATION MODEL
--------------------
CPCM parameters:
  Epsilon                                         ...       3.0000
  Refrac                                          ...       1.3300
  Rsolv                                           ...       1.3000
  Surface type                                    ...    GEPOL SES
  Epsilon function type                           ...         CPCM
Radii:
 Radius for C  used is    3.7795 Bohr (=   2.0000 Ang.)
 Radius for O  used is    3.2503 Bohr (=   1.7200 Ang.)
 Radius for H  used is    2.4566 Bohr (=   1.3000 Ang.)
 Radius for N  used is    3.4582 Bohr (=   1.8300 Ang.)
Calculating surface                               ...        done! (  0.2s)
GEPOL surface points                              ...         1565
GEPOL Volume                                      ...    2963.2578
GEPOL Surface-area                                ...    1441.6668
Calculating surface distance matrix               ...        done! (  0.0s)
Performing Cholesky decomposition & store         ...        done! (  0.2s)
Overall time for CPCM initialization              ...                 0.3s
--------------
SCF ITERATIONS
--------------
ITER       Energy         Delta-E        Max-DP      RMS-DP      [F,P]     Damp
               ***  Starting incremental Fock matrix formation  ***
  0  -1095.9724708086   0.000000000000 0.04382725  0.00051501  0.1459892 0.7000
  1  -1096.1707423123  -0.198271503700 0.03974388  0.00043825  0.0799528 0.7000
                               ***Turning on DIIS***
  2  -1096.2802388665  -0.109496554133 0.09258445  0.00099551  0.0440592 0.0000
  3  -1096.4668070096  -0.186568143079 0.04745188  0.00027071  0.0292795 0.0000
  4  -1096.4883147844  -0.021507774832 0.01872710  0.00010492  0.0041367 0.0000
                      *** Initiating the SOSCF procedure ***
                           *** Shutting down DIIS ***
                      *** Re-Reading the Fockian *** 
                      *** Removing any level shift *** 
ITER      Energy       Delta-E        Grad      Rot      Max-DP    RMS-DP
  5  -1096.48892450  -0.0006097183  0.001092  0.001092  0.007007  0.000043
               *** Restarting incremental Fock matrix formation ***
  6  -1096.48902262  -0.0000981210  0.000477  0.001121  0.006880  0.000034
  7  -1096.48904602  -0.0000233956  0.000290  0.001120  0.004902  0.000024
  8  -1096.48905124  -0.0000052177  0.000135  0.000291  0.001171  0.000007
  9  -1096.48905279  -0.0000015577  0.000020  0.000057  0.000186  0.000002
 10  -1096.48905284  -0.0000000502  0.000016  0.000040  0.000112  0.000001
 11  -1096.48905288  -0.0000000394  0.000004  0.000015  0.000055  0.000000
 12  -1096.48905289  -0.0000000023  0.000003  0.000007  0.000024  0.000000
                  ***Gradient check signals convergence***
              ***Rediagonalizing the Fockian in SOSCF/NRSCF***

               *****************************************************
               *                     SUCCESS                       *
               *           SCF CONVERGED AFTER  13 CYCLES          *
               *****************************************************

Setting up the final grid:

General Integration Accuracy     IntAcc      ...  4.670
Radial Grid Type                 RadialGrid  ... Gauss-Chebyshev
Angular Grid (max. acc.)         AngularGrid ... Lebedev-302
Angular grid pruning method      GridPruning ... 3 (G Style)
Weight generation scheme         WeightScheme... Becke
Basis function cutoff            BFCut       ...    1.0000e-11
Integration weight cutoff        WCut        ...    1.0000e-14
Grids for H and He will be reduced by one unit

# of grid points (after initial pruning)     ... 245786 (   0.0 sec)
# of grid points (after weights+screening)   ... 212876 (   1.7 sec)
nearest neighbour list constructed           ...    0.0 sec
Grid point re-assignment to atoms done       ...    0.0 sec
Grid point division into batches done        ...    0.9 sec
Reduced shell lists constructed in    2.3 sec

Total number of grid points                  ...   212876
Total number of batches                      ...     3352
Average number of points per batch           ...       63
Average number of grid points per atom       ...     4258
Average number of shells per batch           ...   120.65 (31.02%)
Average number of basis functions per batch  ...   288.00 (29.54%)
Average number of large shells per batch     ...    75.66 (62.71%)
Average number of large basis fcns per batch ...   186.02 (64.59%)
Maximum spatial batch extension              ...  20.11, 18.49, 20.96 au
Average spatial batch extension              ...   0.60,  0.55,  0.59 au

Final grid set up in    4.4 sec
Final integration                            ... done (   5.5 sec)
Change in XC energy                          ...     0.005371420
Integrated number of electrons               ...   187.999510586
Previous integrated no of electrons          ...   188.012386005

----------------
TOTAL SCF ENERGY
----------------

Total Energy       :        -1096.48368146 Eh          -29836.83785 eV

Components:
Nuclear Repulsion  :         2222.37083308 Eh           60473.78480 eV
Electronic Energy  :        -3318.85451454 Eh          -90310.62264 eV
One Electron Energy:        -5901.69016142 Eh         -160593.15369 eV
Two Electron Energy:         2582.83564688 Eh           70282.53105 eV
CPCM Dielectric    :           -0.01314657 Eh              -0.35774 eV

Virial components:
Potential Energy   :        -2187.09378276 Eh          -59513.84745 eV
Kinetic Energy     :         1090.61010130 Eh           29677.00961 eV
Virial Ratio       :            2.00538559


DFT components:
N(Alpha)           :       93.999755293144 electrons
N(Beta)            :       93.999755293144 electrons
N(Total)           :      187.999510586288 electrons
E(XC)              :     -109.615240510188 Eh       
DFET-embed. en.    :        0.000000000000 Eh       
CPCM Solvation Model Properties:
Surface-charge          :           -0.04453353
Charge-correction       :           -0.00005255 Eh              -0.00143 eV
Free-energy (cav+disp)  :            0.00645671 Eh               0.17570 eV
Corrected G(solv)       :        -1096.47727730 Eh          -29836.66358 eV

---------------
SCF CONVERGENCE
---------------

  Last Energy change         ...    6.2887e-09  Tolerance :   1.0000e-08
  Last MAX-Density change    ...    1.8017e-05  Tolerance :   1.0000e-07
  Last RMS-Density change    ...    2.8290e-07  Tolerance :   5.0000e-09
  Last Orbital Gradient      ...    6.8059e-07  Tolerance :   1.0000e-05
  Last Orbital Rotation      ...    2.7929e-06  Tolerance :   1.0000e-05

             **** THE GBW FILE WAS UPDATED (DPDHP.gbw) ****
             **** DENSITY FILE WAS UPDATED (DPDHP.scfp) ****
             **** ENERGY FILE WAS UPDATED (DPDHP.en.tmp) ****
             **** THE GBW FILE WAS UPDATED (DPDHP.gbw) ****
             **** DENSITY FILE WAS UPDATED (DPDHP.scfp) ****
----------------
ORBITAL ENERGIES
----------------

  NO   OCC          E(Eh)            E(eV) 
   0   2.0000     -19.260173      -524.0960 
   1   2.0000     -14.450855      -393.2278 
   2   2.0000     -10.342801      -281.4419 
   3   2.0000     -10.327283      -281.0197 
   4   2.0000     -10.326492      -280.9981 
   5   2.0000     -10.325700      -280.9766 
   6   2.0000     -10.305622      -280.4302 
   7   2.0000     -10.305382      -280.4237 
   8   2.0000     -10.301044      -280.3057 
   9   2.0000     -10.288736      -279.9707 
  10   2.0000     -10.285878      -279.8930 
  11   2.0000     -10.285023      -279.8697 
  12   2.0000     -10.283515      -279.8287 
  13   2.0000     -10.283252      -279.8215 
  14   2.0000     -10.283193      -279.8199 
  15   2.0000     -10.282358      -279.7972 
  16   2.0000     -10.281884      -279.7843 
  17   2.0000     -10.281857      -279.7835 
  18   2.0000     -10.281447      -279.7724 
  19   2.0000     -10.280216      -279.7389 
  20   2.0000     -10.280190      -279.7382 
  21   2.0000     -10.279779      -279.7270 
  22   2.0000     -10.279691      -279.7246 
  23   2.0000     -10.277047      -279.6527 
  24   2.0000     -10.274892      -279.5940 
  25   2.0000     -10.265911      -279.3496 
  26   2.0000     -10.264995      -279.3247 
  27   2.0000      -1.189493       -32.3678 
  28   2.0000      -1.061420       -28.8827 
  29   2.0000      -0.981711       -26.7137 
  30   2.0000      -0.976360       -26.5681 
  31   2.0000      -0.975577       -26.5468 
  32   2.0000      -0.929562       -25.2947 
  33   2.0000      -0.910603       -24.7788 
  34   2.0000      -0.882174       -24.0052 
  35   2.0000      -0.868272       -23.6269 
  36   2.0000      -0.865869       -23.5615 
  37   2.0000      -0.864881       -23.5346 
  38   2.0000      -0.859523       -23.3888 
  39   2.0000      -0.834917       -22.7193 
  40   2.0000      -0.824484       -22.4354 
  41   2.0000      -0.788620       -21.4595 
  42   2.0000      -0.750120       -20.4118 
  43   2.0000      -0.746445       -20.3118 
  44   2.0000      -0.720644       -19.6097 
  45   2.0000      -0.718761       -19.5585 
  46   2.0000      -0.712029       -19.3753 
  47   2.0000      -0.708758       -19.2863 
  48   2.0000      -0.685079       -18.6419 
  49   2.0000      -0.681968       -18.5573 
  50   2.0000      -0.642029       -17.4705 
  51   2.0000      -0.634302       -17.2602 
  52   2.0000      -0.621765       -16.9191 
  53   2.0000      -0.599518       -16.3137 
  54   2.0000      -0.597427       -16.2568 
  55   2.0000      -0.586831       -15.9685 
  56   2.0000      -0.579573       -15.7710 
  57   2.0000      -0.574985       -15.6461 
  58   2.0000      -0.569637       -15.5006 
  59   2.0000      -0.558644       -15.2015 
  60   2.0000      -0.557535       -15.1713 
  61   2.0000      -0.546550       -14.8724 
  62   2.0000      -0.543493       -14.7892 
  63   2.0000      -0.542108       -14.7515 
  64   2.0000      -0.533422       -14.5152 
  65   2.0000      -0.525768       -14.3069 
  66   2.0000      -0.523386       -14.2421 
  67   2.0000      -0.521176       -14.1819 
  68   2.0000      -0.518895       -14.1199 
  69   2.0000      -0.513428       -13.9711 
  70   2.0000      -0.506933       -13.7943 
  71   2.0000      -0.490997       -13.3607 
  72   2.0000      -0.487618       -13.2688 
  73   2.0000      -0.481966       -13.1150 
  74   2.0000      -0.471353       -12.8262 
  75   2.0000      -0.470427       -12.8010 
  76   2.0000      -0.461926       -12.5696 
  77   2.0000      -0.454500       -12.3676 
  78   2.0000      -0.448103       -12.1935 
  79   2.0000      -0.444103       -12.0847 
  80   2.0000      -0.437905       -11.9160 
  81   2.0000      -0.431307       -11.7364 
  82   2.0000      -0.421889       -11.4802 
  83   2.0000      -0.419782       -11.4229 
  84   2.0000      -0.408981       -11.1289 
  85   2.0000      -0.407739       -11.0951 
  86   2.0000      -0.387144       -10.5347 
  87   2.0000      -0.344878        -9.3846 
  88   2.0000      -0.343664        -9.3516 
  89   2.0000      -0.343504        -9.3472 
  90   2.0000      -0.342143        -9.3102 
  91   2.0000      -0.315451        -8.5839 
  92   2.0000      -0.297551        -8.0968 
  93   2.0000      -0.265131        -7.2146 
  94   0.0000       0.032597         0.8870 
  95   0.0000       0.039739         1.0813 
  96   0.0000       0.057345         1.5604 
  97   0.0000       0.058224         1.5844 
  98   0.0000       0.059799         1.6272 
  99   0.0000       0.077541         2.1100 
 100   0.0000       0.110283         3.0009 
 101   0.0000       0.116556         3.1717 
 102   0.0000       0.123956         3.3730 
 103   0.0000       0.133768         3.6400 
 104   0.0000       0.137214         3.7338 
 105   0.0000       0.142507         3.8778 
 106   0.0000       0.149378         4.0648 
 107   0.0000       0.151838         4.1317 
 108   0.0000       0.155098         4.2204 
 109   0.0000       0.163637         4.4528 
 110   0.0000       0.170621         4.6428 
 111   0.0000       0.171714         4.6726 
 112   0.0000       0.175642         4.7795 
 113   0.0000       0.177337         4.8256 
 114   0.0000       0.180866         4.9216 
 115   0.0000       0.186778         5.0825 
 116   0.0000       0.189793         5.1645 
 117   0.0000       0.193790         5.2733 
 118   0.0000       0.199721         5.4347 
 119   0.0000       0.202743         5.5169 
 120   0.0000       0.205551         5.5933 
 121   0.0000       0.206986         5.6324 
 122   0.0000       0.209632         5.7044 
 123   0.0000       0.223897         6.0926 
 124   0.0000       0.227992         6.2040 
 125   0.0000       0.228366         6.2141 
 126   0.0000       0.234871         6.3912 
 127   0.0000       0.236735         6.4419 
 128   0.0000       0.238261         6.4834 
 129   0.0000       0.242013         6.5855 
 130   0.0000       0.248127         6.7519 
 131   0.0000       0.253922         6.9096 
 132   0.0000       0.255381         6.9493 
 133   0.0000       0.260700         7.0940 
 134   0.0000       0.267045         7.2667 
 135   0.0000       0.268279         7.3002 
 136   0.0000       0.278845         7.5878 
 137   0.0000       0.281602         7.6628 
 138   0.0000       0.284421         7.7395 
 139   0.0000       0.285127         7.7587 
 140   0.0000       0.289823         7.8865 
 141   0.0000       0.292309         7.9541 
 142   0.0000       0.293656         7.9908 
 143   0.0000       0.297170         8.0864 
 144   0.0000       0.301492         8.2040 
 145   0.0000       0.302396         8.2286 
 146   0.0000       0.304662         8.2903 
 147   0.0000       0.309367         8.4183 
 148   0.0000       0.313334         8.5262 
 149   0.0000       0.314472         8.5572 
 150   0.0000       0.319873         8.7042 
 151   0.0000       0.322332         8.7711 
 152   0.0000       0.324890         8.8407 
 153   0.0000       0.326982         8.8976 
 154   0.0000       0.332552         9.0492 
 155   0.0000       0.335589         9.1318 
 156   0.0000       0.336771         9.1640 
 157   0.0000       0.340020         9.2524 
 158   0.0000       0.346101         9.4179 
 159   0.0000       0.348029         9.4703 
 160   0.0000       0.352394         9.5891 
 161   0.0000       0.358251         9.7485 
 162   0.0000       0.362939         9.8761 
 163   0.0000       0.364613         9.9216 
 164   0.0000       0.372575        10.1383 
 165   0.0000       0.374370        10.1871 
 166   0.0000       0.379902        10.3377 
 167   0.0000       0.387289        10.5387 
 168   0.0000       0.389999        10.6124 
 169   0.0000       0.393873        10.7178 
 170   0.0000       0.395283        10.7562 
 171   0.0000       0.399260        10.8644 
 172   0.0000       0.402719        10.9585 
 173   0.0000       0.406224        11.0539 
 174   0.0000       0.409559        11.1447 
 175   0.0000       0.410700        11.1757 
 176   0.0000       0.419762        11.4223 
 177   0.0000       0.422805        11.5051 
 178   0.0000       0.427346        11.6287 
 179   0.0000       0.431151        11.7322 
 180   0.0000       0.433641        11.8000 
 181   0.0000       0.435229        11.8432 
 182   0.0000       0.440665        11.9911 
 183   0.0000       0.441356        12.0099 
 184   0.0000       0.444453        12.0942 
 185   0.0000       0.450751        12.2656 
 186   0.0000       0.452623        12.3165 
 187   0.0000       0.456588        12.4244 
 188   0.0000       0.459235        12.4964 
 189   0.0000       0.461887        12.5686 
 190   0.0000       0.464059        12.6277 
 191   0.0000       0.466704        12.6997 
 192   0.0000       0.470808        12.8113 
 193   0.0000       0.475375        12.9356 
 194   0.0000       0.479055        13.0357 
 195   0.0000       0.482240        13.1224 
 196   0.0000       0.484977        13.1969 
 197   0.0000       0.488434        13.2910 
 198   0.0000       0.491112        13.3638 
 199   0.0000       0.494263        13.4496 
 200   0.0000       0.496777        13.5180 
 201   0.0000       0.498342        13.5606 
 202   0.0000       0.505598        13.7580 
 203   0.0000       0.505901        13.7663 
 204   0.0000       0.510143        13.8817 
 205   0.0000       0.513387        13.9700 
 206   0.0000       0.514088        13.9890 
 207   0.0000       0.518294        14.1035 
 208   0.0000       0.520827        14.1724 
 209   0.0000       0.529484        14.4080 
 210   0.0000       0.530991        14.4490 
 211   0.0000       0.533454        14.5160 
 212   0.0000       0.540588        14.7102 
 213   0.0000       0.542428        14.7602 
 214   0.0000       0.546716        14.8769 
 215   0.0000       0.547459        14.8971 
 216   0.0000       0.550159        14.9706 
 217   0.0000       0.553339        15.0571 
 218   0.0000       0.554907        15.0998 
 219   0.0000       0.558796        15.2056 
 220   0.0000       0.563440        15.3320 
 221   0.0000       0.565946        15.4002 
 222   0.0000       0.575063        15.6482 
 223   0.0000       0.575525        15.6608 
 224   0.0000       0.580122        15.7859 
 225   0.0000       0.580600        15.7989 
 226   0.0000       0.583935        15.8897 
 227   0.0000       0.590127        16.0582 
 228   0.0000       0.590963        16.0809 
 229   0.0000       0.593894        16.1607 
 230   0.0000       0.599282        16.3073 
 231   0.0000       0.602130        16.3848 
 232   0.0000       0.607397        16.5281 
 233   0.0000       0.611063        16.6279 
 234   0.0000       0.613147        16.6846 
 235   0.0000       0.616712        16.7816 
 236   0.0000       0.625115        17.0102 
 237   0.0000       0.629541        17.1307 
 238   0.0000       0.640452        17.4276 
 239   0.0000       0.642478        17.4827 
 240   0.0000       0.646641        17.5960 
 241   0.0000       0.659788        17.9537 
 242   0.0000       0.666795        18.1444 
 243   0.0000       0.674262        18.3476 
 244   0.0000       0.675267        18.3749 
 245   0.0000       0.683946        18.6111 
 246   0.0000       0.690857        18.7992 
 247   0.0000       0.691787        18.8245 
 248   0.0000       0.698432        19.0053 
 249   0.0000       0.706387        19.2218 
 250   0.0000       0.707423        19.2500 
 251   0.0000       0.715387        19.4667 
 252   0.0000       0.715860        19.4795 
 253   0.0000       0.719961        19.5911 
 254   0.0000       0.728615        19.8266 
 255   0.0000       0.731820        19.9138 
 256   0.0000       0.735911        20.0252 
 257   0.0000       0.737135        20.0585 
 258   0.0000       0.745588        20.2885 
 259   0.0000       0.747228        20.3331 
 260   0.0000       0.750604        20.4250 
 261   0.0000       0.751978        20.4624 
 262   0.0000       0.754905        20.5420 
 263   0.0000       0.757761        20.6197 
 264   0.0000       0.766965        20.8702 
 265   0.0000       0.771495        20.9934 
 266   0.0000       0.775474        21.1017 
 267   0.0000       0.776948        21.1418 
 268   0.0000       0.784045        21.3350 
 269   0.0000       0.784858        21.3571 
 270   0.0000       0.788849        21.4657 
 271   0.0000       0.791688        21.5429 
 272   0.0000       0.793697        21.5976 
 273   0.0000       0.802877        21.8474 
 274   0.0000       0.804733        21.8979 
 275   0.0000       0.809012        22.0143 
 276   0.0000       0.810446        22.0533 
 277   0.0000       0.818742        22.2791 
 278   0.0000       0.820064        22.3151 
 279   0.0000       0.828532        22.5455 
 280   0.0000       0.832588        22.6559 
 281   0.0000       0.835022        22.7221 
 282   0.0000       0.838312        22.8116 
 283   0.0000       0.852873        23.2079 
 284   0.0000       0.859647        23.3922 
 285   0.0000       0.861541        23.4437 
 286   0.0000       0.865186        23.5429 
 287   0.0000       0.872850        23.7515 
 288   0.0000       0.876611        23.8538 
 289   0.0000       0.884731        24.0748 
 290   0.0000       0.886780        24.1305 
 291   0.0000       0.895516        24.3682 
 292   0.0000       0.899092        24.4656 
 293   0.0000       0.908795        24.7296 
 294   0.0000       0.912200        24.8222 
 295   0.0000       0.915878        24.9223 
 296   0.0000       0.918624        24.9970 
 297   0.0000       0.929174        25.2841 
 298   0.0000       0.930416        25.3179 
 299   0.0000       0.935882        25.4666 
 300   0.0000       0.939790        25.5730 
 301   0.0000       0.944149        25.6916 
 302   0.0000       0.949393        25.8343 
 303   0.0000       0.952048        25.9065 
 304   0.0000       0.955929        26.0121 
 305   0.0000       0.962617        26.1941 
 306   0.0000       0.970508        26.4089 
 307   0.0000       0.974649        26.5215 
 308   0.0000       0.975614        26.5478 
 309   0.0000       0.992476        27.0067 
 310   0.0000       0.993566        27.0363 
 311   0.0000       0.999196        27.1895 
 312   0.0000       1.004032        27.3211 
 313   0.0000       1.004679        27.3387 
 314   0.0000       1.009450        27.4685 
 315   0.0000       1.014615        27.6091 
 316   0.0000       1.022177        27.8149 
 317   0.0000       1.031340        28.0642 
 318   0.0000       1.044219        28.4146 
 319   0.0000       1.049873        28.5685 
 320   0.0000       1.053704        28.6727 
 321   0.0000       1.059538        28.8315 
 322   0.0000       1.068429        29.0734 
 323   0.0000       1.079091        29.3636 
 324   0.0000       1.081716        29.4350 
 325   0.0000       1.085762        29.5451 
 326   0.0000       1.091422        29.6991 
 327   0.0000       1.097013        29.8512 
 328   0.0000       1.104904        30.0660 
 329   0.0000       1.108261        30.1573 
 330   0.0000       1.116932        30.3933 
 331   0.0000       1.120613        30.4934 
 332   0.0000       1.124461        30.5981 
 333   0.0000       1.127973        30.6937 
 334   0.0000       1.134453        30.8700 
 335   0.0000       1.135917        30.9099 
 336   0.0000       1.154261        31.4090 
 337   0.0000       1.162940        31.6452 
 338   0.0000       1.170910        31.8621 
 339   0.0000       1.177477        32.0408 
 340   0.0000       1.182610        32.1805 
 341   0.0000       1.185114        32.2486 
 342   0.0000       1.187665        32.3180 
[...]
      f0      :     0.012140  f :     0.039201
      f+1     :     0.002760
      f-1     :     0.007978
      f+2     :     0.005088
      f-2     :     0.006098
      f+3     :     0.002056
      f-3     :     0.003082
 25 H s       :     0.823432  s :     0.823432
      pz      :     0.011027  p :     0.061226
      px      :     0.013632
      py      :     0.036568
 26 H s       :     0.807418  s :     0.807418
      pz      :     0.019961  p :     0.062302
      px      :     0.028695
      py      :     0.013646
 27 H s       :     0.806671  s :     0.806671
      pz      :     0.017056  p :     0.062526
      px      :     0.031728
      py      :     0.013742
 28 C s       :     2.695908  s :     2.695908
      pz      :     0.864988  p :     2.850439
      px      :     0.975222
      py      :     1.010229
      dz2     :     0.050712  d :     0.513256
      dxz     :     0.073438
      dyz     :     0.078652
      dx2y2   :     0.146077
      dxy     :     0.164378
      f0      :     0.004164  f :     0.057998
      f+1     :     0.004867
      f-1     :     0.004738
      f+2     :     0.007719
      f-2     :     0.007825
      f+3     :     0.019691
      f-3     :     0.008995
 29 C s       :     2.753889  s :     2.753889
      pz      :     0.896885  p :     2.925094
      px      :     1.042577
      py      :     0.985632
      dz2     :     0.030107  d :     0.383817
      dxz     :     0.077237
      dyz     :     0.027846
      dx2y2   :     0.151179
      dxy     :     0.097448
      f0      :     0.003684  f :     0.043194
      f+1     :     0.004897
      f-1     :     0.002321
      f+2     :     0.003197
      f-2     :     0.007621
      f+3     :     0.014029
      f-3     :     0.007445
 30 C s       :     2.762246  s :     2.762246
      pz      :     0.895766  p :     2.948054
      px      :     1.006957
      py      :     1.045331
      dz2     :     0.026518  d :     0.389708
      dxz     :     0.045742
      dyz     :     0.064968
      dx2y2   :     0.115749
      dxy     :     0.136732
      f0      :     0.003703  f :     0.043723
      f+1     :     0.002430
      f-1     :     0.004860
      f+2     :     0.005788
      f-2     :     0.004981
      f+3     :     0.014714
      f-3     :     0.007247
 31 H s       :     0.783963  s :     0.783963
      pz      :     0.014874  p :     0.059456
      px      :     0.010534
      py      :     0.034048
 32 C s       :     2.753009  s :     2.753009
      pz      :     0.891983  p :     2.921672
      px      :     1.008086
      py      :     1.021603
      dz2     :     0.026914  d :     0.385180
      dxz     :     0.044731
      dyz     :     0.063097
      dx2y2   :     0.117648
      dxy     :     0.132791
      f0      :     0.003702  f :     0.043391
      f+1     :     0.002439
      f-1     :     0.004734
      f+2     :     0.005801
      f-2     :     0.004811
      f+3     :     0.014614
      f-3     :     0.007291
 33 C s       :     2.762096  s :     2.762096
      pz      :     0.897782  p :     2.948312
      px      :     1.064445
      py      :     0.986086
      dz2     :     0.029523  d :     0.390388
      dxz     :     0.080515
      dyz     :     0.027738
      dx2y2   :     0.154814
      dxy     :     0.097797
      f0      :     0.003686  f :     0.043844
      f+1     :     0.004977
      f-1     :     0.002409
      f+2     :     0.003177
      f-2     :     0.007737
      f+3     :     0.014415
      f-3     :     0.007445
 34 H s       :     0.785092  s :     0.785092
      pz      :     0.015371  p :     0.059350
      px      :     0.028726
      py      :     0.015253
 35 C s       :     2.763071  s :     2.763071
      pz      :     0.904407  p :     2.951441
      px      :     1.008319
      py      :     1.038716
      dz2     :     0.040899  d :     0.388803
      dxz     :     0.035816
      dyz     :     0.062028
      dx2y2   :     0.105679
      dxy     :     0.144381
      f0      :     0.003066  f :     0.043763
      f+1     :     0.004149
      f-1     :     0.004158
      f+2     :     0.006787
      f-2     :     0.004512
      f+3     :     0.013609
      f-3     :     0.007482
 36 H s       :     0.790606  s :     0.790606
      pz      :     0.015182  p :     0.058757
      px      :     0.028025
      py      :     0.015550
 37 H s       :     0.791006  s :     0.791006
      pz      :     0.012880  p :     0.058842
      px      :     0.028257
      py      :     0.017705
 38 H s       :     0.790283  s :     0.790283
      pz      :     0.014650  p :     0.058677
      px      :     0.010827
      py      :     0.033200
 39 C s       :     2.695819  s :     2.695819
      pz      :     0.871659  p :     2.849719
      px      :     0.970605
      py      :     1.007454
      dz2     :     0.055596  d :     0.513007
      dxz     :     0.071291
      dyz     :     0.083465
      dx2y2   :     0.139683
      dxy     :     0.162972
      f0      :     0.004238  f :     0.057994
      f+1     :     0.005053
      f-1     :     0.005118
      f+2     :     0.008091
      f-2     :     0.007899
      f+3     :     0.018345
      f-3     :     0.009250
 40 C s       :     2.753857  s :     2.753857
      pz      :     0.902307  p :     2.924728
      px      :     1.033755
      py      :     0.988666
      dz2     :     0.035376  d :     0.383845
      dxz     :     0.074508
      dyz     :     0.032453
      dx2y2   :     0.147496
      dxy     :     0.094011
      f0      :     0.003789  f :     0.043195
      f+1     :     0.004818
      f-1     :     0.002640
      f+2     :     0.003795
      f-2     :     0.007645
      f+3     :     0.012723
      f-3     :     0.007785
 41 C s       :     2.753132  s :     2.753132
      pz      :     0.896428  p :     2.922574
      px      :     0.999462
      py      :     1.026685
      dz2     :     0.025515  d :     0.385130
      dxz     :     0.046224
      dyz     :     0.068593
      dx2y2   :     0.120073
      dxy     :     0.124725
      f0      :     0.003780  f :     0.043351
      f+1     :     0.002150
      f-1     :     0.005124
      f+2     :     0.005585
      f-2     :     0.005282
      f+3     :     0.014128
      f-3     :     0.007301
 42 C s       :     2.762231  s :     2.762231
      pz      :     0.899260  p :     2.948336
      px      :     0.998276
      py      :     1.050801
      dz2     :     0.025455  d :     0.389704
      dxz     :     0.046341
      dyz     :     0.070416
      dx2y2   :     0.118548
      dxy     :     0.128944
      f0      :     0.003771  f :     0.043712
      f+1     :     0.002151
      f-1     :     0.005273
      f+2     :     0.005548
      f-2     :     0.005464
      f+3     :     0.014223
      f-3     :     0.007282
 43 H s       :     0.783794  s :     0.783794
      pz      :     0.014676  p :     0.059481
      px      :     0.010628
      py      :     0.034177
 44 C s       :     2.763083  s :     2.763083
      pz      :     0.910432  p :     2.951436
      px      :     1.004349
      py      :     1.036656
      dz2     :     0.043866  d :     0.388827
      dxz     :     0.037708
      dyz     :     0.064031
      dx2y2   :     0.097378
      dxy     :     0.145844
      f0      :     0.003220  f :     0.043777
      f+1     :     0.004337
      f-1     :     0.004103
      f+2     :     0.007305
      f-2     :     0.004527
      f+3     :     0.012850
      f-3     :     0.007435
 45 H s       :     0.790676  s :     0.790676
      pz      :     0.016242  p :     0.058780
      px      :     0.027985
      py      :     0.014552
 46 C s       :     2.762111  s :     2.762111
      pz      :     0.904881  p :     2.948438
      px      :     1.055323
      py      :     0.988234
      dz2     :     0.034878  d :     0.390410
      dxz     :     0.077769
      dyz     :     0.032505
      dx2y2   :     0.150694
      dxy     :     0.094565
      f0      :     0.003797  f :     0.043834
      f+1     :     0.004864
      f-1     :     0.002729
      f+2     :     0.003794
      f-2     :     0.007767
      f+3     :     0.013094
      f-3     :     0.007787
 47 H s       :     0.785391  s :     0.785391
      pz      :     0.016504  p :     0.059335
      px      :     0.028543
      py      :     0.014287
 48 H s       :     0.790314  s :     0.790314
      pz      :     0.014481  p :     0.058681
      px      :     0.010979
      py      :     0.033222
 49 H s       :     0.791175  s :     0.791175
      pz      :     0.013071  p :     0.058874
      px      :     0.026773
      py      :     0.019031


                      *****************************
                      * MAYER POPULATION ANALYSIS *
                      *****************************

  NA   - Mulliken gross atomic population
  ZA   - Total nuclear charge
  QA   - Mulliken gross atomic charge
  VA   - Mayer's total valence
  BVA  - Mayer's bonded valence
  FA   - Mayer's free valence

  ATOM       NA         ZA         QA         VA         BVA        FA
  0 C      6.2405     6.0000    -0.2405     3.8594     3.8594    -0.0000
  1 O      8.2977     8.0000    -0.2977     2.0825     2.0825    -0.0000
  2 H      0.8443     1.0000     0.1557     0.9671     0.9671    -0.0000
  3 H      0.8606     1.0000     0.1394     0.9585     0.9585    -0.0000
  4 H      0.8587     1.0000     0.1413     0.9573     0.9573    -0.0000
  5 C      5.6412     6.0000     0.3588     3.7549     3.7549    -0.0000
  6 C      6.2585     6.0000    -0.2585     3.9309     3.9309    -0.0000
  7 C      6.2813     6.0000    -0.2813     3.8420     3.8420    -0.0000
  8 C      6.2943     6.0000    -0.2943     4.0565     4.0565    -0.0000
  9 H      0.8450     1.0000     0.1550     0.9824     0.9824    -0.0000
 10 C      6.1644     6.0000    -0.1644     3.8900     3.8900    -0.0000
 11 H      0.8602     1.0000     0.1398     0.9875     0.9875    -0.0000
 12 C      5.9323     6.0000     0.0677     3.6839     3.6839    -0.0000
 13 H      0.8560     1.0000     0.1440     0.9722     0.9722    -0.0000
 14 H      0.8431     1.0000     0.1569     0.9526     0.9526    -0.0000
 15 C      5.8541     6.0000     0.1459     3.8312     3.8312    -0.0000
 16 C      6.2852     6.0000    -0.2852     3.9009     3.9009    -0.0000
 17 C      6.2912     6.0000    -0.2912     3.8904     3.8904    -0.0000
 18 H      0.8961     1.0000     0.1039     0.9561     0.9561    -0.0000
 19 C      5.8532     6.0000     0.1468     3.7668     3.7668    -0.0000
 20 H      0.8441     1.0000     0.1559     0.9640     0.9640    -0.0000
 21 C      5.8415     6.0000     0.1585     3.7842     3.7842    -0.0000
 22 H      0.8444     1.0000     0.1556     0.9646     0.9646    -0.0000
 23 N      7.0637     7.0000    -0.0637     3.0326     3.0326    -0.0000
 24 C      6.3580     6.0000    -0.3580     3.8639     3.8639    -0.0000
 25 H      0.8489     1.0000     0.1511     0.9530     0.9530    -0.0000
 26 H      0.8256     1.0000     0.1744     0.9544     0.9544    -0.0000
 27 H      0.8252     1.0000     0.1748     0.9538     0.9538    -0.0000
 28 C      5.9834     6.0000     0.0166     3.6218     3.6218    -0.0000
 29 C      6.2656     6.0000    -0.2656     3.9738     3.9738    -0.0000
 30 C      6.1504     6.0000    -0.1504     3.8968     3.8968    -0.0000
 31 H      0.8375     1.0000     0.1625     0.9706     0.9706    -0.0000
 32 C      6.2364     6.0000    -0.2364     3.9284     3.9284    -0.0000
 33 C      6.1510     6.0000    -0.1510     3.9053     3.9053    -0.0000
 34 H      0.8260     1.0000     0.1740     0.9663     0.9663    -0.0000
 35 C      6.1419     6.0000    -0.1419     3.8649     3.8649    -0.0000
 36 H      0.8554     1.0000     0.1446     0.9695     0.9695    -0.0000
 37 H      0.8478     1.0000     0.1522     0.9638     0.9638    -0.0000
 38 H      0.8544     1.0000     0.1456     0.9699     0.9699    -0.0000
 39 C      5.9729     6.0000     0.0271     3.6331     3.6331    -0.0000
 40 C      6.2674     6.0000    -0.2674     3.9756     3.9756    -0.0000
 41 C      6.2401     6.0000    -0.2401     3.9216     3.9216    -0.0000
 42 C      6.1486     6.0000    -0.1486     3.8973     3.8973    -0.0000
 43 H      0.8370     1.0000     0.1630     0.9704     0.9704    -0.0000
 44 C      6.1422     6.0000    -0.1422     3.8705     3.8705    -0.0000
 45 H      0.8552     1.0000     0.1448     0.9688     0.9688    -0.0000
 46 C      6.1486     6.0000    -0.1486     3.9022     3.9022    -0.0000
 47 H      0.8254     1.0000     0.1746     0.9646     0.9646    -0.0000
 48 H      0.8543     1.0000     0.1457     0.9698     0.9698    -0.0000
 49 H      0.8493     1.0000     0.1507     0.9642     0.9642    -0.0000

  Mayer bond orders larger than 0.100000
B(  0-C ,  1-O ) :   0.9269 B(  0-C ,  2-H ) :   0.9698 B(  0-C ,  3-H ) :   0.9671 
B(  0-C ,  4-H ) :   0.9672 B(  1-O ,  5-C ) :   1.1117 B(  5-C ,  6-C ) :   1.3133 
B(  5-C ,  7-C ) :   1.3010 B(  6-C , 10-C ) :   1.4714 B(  6-C , 11-H ) :   1.0017 
B(  7-C ,  8-C ) :   1.4107 B(  7-C ,  9-H ) :   0.9692 B(  8-C , 12-C ) :   1.4261 
B(  8-C , 13-H ) :   0.9637 B( 10-C , 12-C ) :   1.3184 B( 10-C , 14-H ) :   0.9751 
B( 12-C , 15-C ) :   0.8644 B( 15-C , 16-C ) :   0.9649 B( 15-C , 17-C ) :   0.9525 
B( 15-C , 18-H ) :   0.9723 B( 16-C , 19-C ) :   1.8071 B( 16-C , 20-H ) :   0.9690 
B( 17-C , 21-C ) :   1.8194 B( 17-C , 22-H ) :   0.9642 B( 19-C , 23-N ) :   1.1056 
B( 19-C , 28-C ) :   0.8905 B( 21-C , 23-N ) :   1.1109 B( 21-C , 39-C ) :   0.8939 
B( 23-N , 24-C ) :   0.8660 B( 24-C , 25-H ) :   0.9717 B( 24-C , 26-H ) :   0.9601 
B( 24-C , 27-H ) :   0.9595 B( 28-C , 29-C ) :   1.4030 B( 28-C , 32-C ) :   1.3314 
B( 29-C , 30-C ) :   1.4308 B( 29-C , 31-H ) :   0.9714 B( 30-C , 35-C ) :   1.3941 
B( 30-C , 36-H ) :   0.9876 B( 32-C , 33-C ) :   1.4542 B( 32-C , 34-H ) :   0.9550 
B( 33-C , 35-C ) :   1.3702 B( 33-C , 38-H ) :   0.9878 B( 35-C , 37-H ) :   0.9817 
B( 39-C , 40-C ) :   1.3999 B( 39-C , 41-C ) :   1.3305 B( 40-C , 42-C ) :   1.4331 
B( 40-C , 43-H ) :   0.9706 B( 41-C , 46-C ) :   1.4515 B( 41-C , 47-H ) :   0.9558 
B( 42-C , 44-C ) :   1.3954 B( 42-C , 45-H ) :   0.9855 B( 44-C , 46-C ) :   1.3710 
B( 44-C , 49-H ) :   0.9821 B( 46-C , 48-H ) :   0.9873 

-------
TIMINGS
-------

Total SCF time: 0 days 0 hours 59 min 36 sec 

Total time                  ....    3576.895 sec
Sum of individual times     ....    3572.652 sec  ( 99.9%)

Fock matrix formation       ....    3556.832 sec  ( 99.4%)
  XC integration            ....      20.269 sec  (  0.6% of F)
    Basis function eval.    ....       3.603 sec  ( 17.8% of XC)
    Density eval.           ....       6.836 sec  ( 33.7% of XC)
    XC-Functional eval.     ....       0.838 sec  (  4.1% of XC)
    XC-Potential eval.      ....       7.916 sec  ( 39.1% of XC)
Diagonalization             ....       1.344 sec  (  0.0%)
Density matrix formation    ....       0.152 sec  (  0.0%)
Population analysis         ....       0.715 sec  (  0.0%)
Initial guess               ....       1.219 sec  (  0.0%)
Orbital Transformation      ....       0.000 sec  (  0.0%)
Orbital Orthonormalization  ....       1.133 sec  (  0.0%)
DIIS solution               ....       0.394 sec  (  0.0%)
SOSCF solution              ....       4.477 sec  (  0.1%)
Grid generation             ....       7.519 sec  (  0.2%)


-------------------------------------------------------------------------------
                          DFT DISPERSION CORRECTION                            
                                                                               
                              DFTD3 V3.1  Rev 1                                
                              USING zero damping                               
-------------------------------------------------------------------------------
The omegaB97X-D3 functional is recognized. Fit by Chai et al.
Active option DFTDOPT                   ...         3   

molecular C6(AA) [au] = 29028.692879 


            DFT-D V3
 parameters
 s6 scaling factor         :     1.0000 
 rs6 scaling factor        :     1.2810 
 s8 scaling factor         :     1.0000 
 rs8 scaling factor        :     1.0940 
 Damping factor alpha6     :    14.0000 
 Damping factor alpha8     :    16.0000 
 ad hoc parameters k1-k3   :    16.0000     1.3333    -4.0000 

 Edisp/kcal,au: -15.576523739923  -0.024822767978 
 E6   /kcal   :  -7.662875388 
 E8   /kcal   :  -7.913648352 
 % E8         :  50.804970894 

-------------------------   ----------------
Dispersion correction           -0.024822768
-------------------------   ----------------


-------------------------   --------------------
FINAL SINGLE POINT ENERGY     -1096.536883466181
-------------------------   --------------------

                                *** OPTIMIZATION RUN DONE ***

                            ***************************************
                            *     ORCA property calculations      *
                            ***************************************

                                    ---------------------
                                    Active property flags
                                    ---------------------
   (+) Dipole Moment


------------------------------------------------------------------------------
                       ORCA ELECTRIC PROPERTIES CALCULATION
------------------------------------------------------------------------------

Dipole Moment Calculation                       ... on
Quadrupole Moment Calculation                   ... off
Polarizability Calculation                      ... off
GBWName                                         ... DPDHP.gbw
Electron density file                           ... DPDHP.scfp
The origin for moment calculation is the CENTER OF MASS  = ( 6.009508,  1.417817 -0.632977)

-------------
DIPOLE MOMENT
-------------
                                X             Y             Z
Electronic contribution:      0.49348      -2.14845      -2.74703
Nuclear contribution   :     -0.59203       2.18065       2.86980
                        -----------------------------------------
Total Dipole Moment    :     -0.09855       0.03220       0.12277
                        -----------------------------------------
Magnitude (a.u.)       :      0.16069
Magnitude (Debye)      :      0.40844



--------------------
Rotational spectrum 
--------------------
 
Rotational constants in cm-1:     0.006744     0.004409     0.002898 
Rotational constants in MHz :   202.179143   132.169087    86.866298 

 Dipole components along the rotational axes: 
x,y,z [a.u.] :     0.064737    -0.098930     0.108826 
x,y,z [Debye]:     0.164548    -0.251461     0.276612 

 
--------------------------------------------------------------------------
[[15537,1],0]: A high-performance Open MPI point-to-point messaging module
was unable to find any relevant network interfaces:

Module: OpenFabrics (openib)
  Host: compute-0-14

Another transport will be used instead, although this may result in
lower performance.

NOTE: You can disable this warning by setting the MCA parameter
btl_base_warn_component_unused to 0.
--------------------------------------------------------------------------
[compute-0-14.local:13273] 3 more processes have sent help message help-mpi-btl-base.txt / btl:no-nics
[compute-0-14.local:13273] Set MCA parameter "orte_base_help_aggregate" to 0 to see all help / error messages

Timings for individual modules:

Sum of individual times         ...   203549.057 sec (=3392.484 min)
GTO integral calculation        ...      170.948 sec (=   2.849 min)   0.1 %
SCF iterations                  ...   127517.749 sec (=2125.296 min)  62.6 %
SCF Gradient evaluation         ...    75837.184 sec (=1263.953 min)  37.3 %
Geometry relaxation             ...       23.176 sec (=   0.386 min)   0.0 %
                             ****ORCA TERMINATED NORMALLY****
TOTAL RUN TIME: 2 days 8 hours 32 minutes 48 seconds 939 msec
