Warning: no access to tty (Bad file descriptor).
Thus no job control in this shell.

                                 *****************
                                 * O   R   C   A *
                                 *****************

           --- An Ab Initio, DFT and Semiempirical electronic structure package ---

                  #######################################################
                  #                        -***-                        #
                  #          Department of theory and spectroscopy      #
                  #               Directorship: Frank Neese             #
                  #        Max Planck Institute fuer Kohlenforschung    #
                  #                Kaiser Wilhelm Platz 1               #
                  #                 D-45470 Muelheim/Ruhr               #
                  #                      Germany                        #
                  #                                                     #
                  #                  All rights reserved                #
                  #                        -***-                        #
                  #######################################################


                         Program Version 4.2.1 -  RELEASE  -


 With contributions from (in alphabetic order):
   Daniel Aravena         : Magnetic Suceptibility
   Michael Atanasov       : Ab Initio Ligand Field Theory (pilot matlab implementation)
   Alexander A. Auer      : GIAO ZORA, VPT2
   Ute Becker             : Parallelization
   Giovanni Bistoni       : ED, misc. LED, open-shell LED, HFLD
   Martin Brehm           : Molecular dynamics
   Dmytro Bykov           : SCF Hessian
   Vijay G. Chilkuri      : MRCI spin determinant printing, contributions to CSF-ICE
   Dipayan Datta          : RHF DLPNO-CCSD density
   Achintya Kumar Dutta   : EOM-CC, STEOM-CC
   Dmitry Ganyushin       : Spin-Orbit,Spin-Spin,Magnetic field MRCI
   Miquel Garcia          : C-PCM Hessian, Gaussian charge scheme
   Yang Guo               : DLPNO-NEVPT2, CIM, IAO-localization
   Andreas Hansen         : Spin unrestricted coupled pair/coupled cluster methods
   Benjamin Helmich-Paris : CASSCF linear response (MC-RPA)
   Lee Huntington         : MR-EOM, pCC
   Robert Izsak           : Overlap fitted RIJCOSX, COSX-SCS-MP3, EOM
   Christian Kollmar      : KDIIS, OOCD, Brueckner-CCSD(T), CCSD density
   Simone Kossmann        : Meta GGA functionals, TD-DFT gradient, OOMP2, MP2 Hessian
   Martin Krupicka        : AUTO-CI
   Lucas Lang             : DCDCAS
   Dagmar Lenk            : GEPOL surface, SMD
   Dimitrios Liakos       : Extrapolation schemes; Compound Job, initial MDCI parallelization
   Dimitrios Manganas     : Further ROCIS development; embedding schemes
   Dimitrios Pantazis     : SARC Basis sets
   Taras Petrenko         : DFT Hessian,TD-DFT gradient, ASA, ECA, R-Raman, ABS, FL, XAS/XES, NRVS
   Peter Pinski           : DLPNO-MP2, DLPNO-MP2 Gradient
   Christoph Reimann      : Effective Core Potentials
   Marius Retegan         : Local ZFS, SOC
   Christoph Riplinger    : Optimizer, TS searches, QM/MM, DLPNO-CCSD(T), (RO)-DLPNO pert. Triples
   Tobias Risthaus        : Range-separated hybrids, TD-DFT gradient, RPA, STAB
   Michael Roemelt        : Original ROCIS implementation
   Masaaki Saitow         : Open-shell DLPNO-CCSD energy and density
   Barbara Sandhoefer     : DKH picture change effects
   Avijit Sen             : IP-ROCIS
   Kantharuban Sivalingam : CASSCF convergence, NEVPT2, FIC-MRCI
   Bernardo de Souza      : ESD, SOC TD-DFT
   Georgi Stoychev        : AutoAux, RI-MP2 NMR
   Willem Van den Heuvel  : Paramagnetic NMR
   Boris Wezisla          : Elementary symmetry handling
   Frank Wennmohs         : Technical directorship


 We gratefully acknowledge several colleagues who have allowed us to
 interface, adapt or use parts of their codes:
   Stefan Grimme, W. Hujo, H. Kruse,             : VdW corrections, initial TS optimization,
                  C. Bannwarth                     DFT functionals, gCP, sTDA/sTD-DF
   Ed Valeev, F. Pavosevic, A. Kumar             : LibInt (2-el integral package), F12 methods
   Garnet Chan, S. Sharma, J. Yang, R. Olivares  : DMRG
   Ulf Ekstrom                                   : XCFun DFT Library
   Mihaly Kallay                                 : mrcc  (arbitrary order and MRCC methods)
   Andreas Klamt, Michael Diedenhofen            : otool_cosmo (COSMO solvation model)
   Jiri Pittner, Ondrej Demel                    : Mk-CCSD
   Frank Weinhold                                : gennbo (NPA and NBO analysis)
   Christopher J. Cramer and Donald G. Truhlar   : smd solvation model
   Lars Goerigk                                  : TD-DFT with DH, B97 family of functionals
   V. Asgeirsson, H. Jonsson                     : NEB implementation
   FAccTs GmbH                                   : IRC, NEB, NEB-TS, Multilevel, MM, QM/MM, CI optimization
   S Lehtola, MJT Oliveira, MAL Marques          : LibXC Library


 Your calculation uses the libint2 library for the computation of 2-el integrals
 For citations please refer to: http://libint.valeyev.net

 Your ORCA version has been built with support for libXC version: 4.2.3
 For citations please refer to: https://tddft.org/programs/libxc/

 This ORCA versions uses:
   CBLAS   interface :  Fast vector & matrix operations
   LAPACKE interface :  Fast linear algebra routines
   SCALAPACK package :  Parallel linear algebra routines


Your calculation utilizes the atom-pairwise dispersion correction
with the zero-damping scheme (D30)
Cite in your paper:
S.Grimme, J.Antony, S.Ehrlich and H.Krieg, J.Chem.Phys., 132, (2010), 154104 
   

XCFun DFT library Copyright 2009-2010 Ulf Ekstrom and contributors.
See http://admol.org/xcfun for more information. This is free soft-
ware; see the source code for copying conditions. There is ABSOLUTELY
NO WARRANTY; not even for MERCHANTABILITY or FITNESS FOR A PARTICULAR
PURPOSE. For details see the documentation. Scientific users of this 
library should cite U. Ekstrom, L. Visscher, R. Bast, A. J. Thorvald-
sen and K. Ruud; J.Chem.Theor.Comp. 2010, DOI: 10.1021/ct100117s
XCFun Version 0.99 
----- Orbital basis set information -----
Your calculation utilizes the basis: def2-TZVP
   F. Weigend and R. Ahlrichs, Phys. Chem. Chem. Phys. 7, 3297 (2005).

----- AuxJ basis set information -----
Your calculation utilizes the auxiliary basis: def2/J
   F. Weigend, Phys. Chem. Chem. Phys. 8, 1057 (2006).

================================================================================
                                        WARNINGS
                       Please study these warnings very carefully!
================================================================================


WARNING: Geometry Optimization
  ===> : Switching off AutoStart
         For restart on a previous wavefunction, please use MOREAD

INFO   : the flag for use of LIBINT has been found!

================================================================================
                                       INPUT FILE
================================================================================
NAME = F6-TCNNQ.inp
|  1> # avogadro generated ORCA input file 
|  2> # Basic Mode
|  3> # 
|  4> ! wB97X-D3 OPT def2-TZVP def2/J CPCM
|  5> %cpcm
|  6>   epsilon 3
|  7> end
|  8> %pal
|  9>  nprocs 4
| 10> end
| 11> 
| 12> * xyz 0 1
| 13>    N      -18.19932        1.39042       -0.00850
| 14>    C      -17.16652        0.85993       -0.00954
| 15>    N      -16.80606       -2.37390       -0.00938
| 16>    C      -16.33947       -1.31082       -0.01006
| 17>    C      -15.92746        0.08495       -0.01067
| 18>    C      -14.61455        0.61416       -0.01176
| 19>    C      -14.39560        2.01748       -0.01202
| 20>    C      -13.41030       -0.17559       -0.01259
| 21>    C      -13.09129        2.60050       -0.01266
| 22>    C      -11.89174        1.82444       -0.01308
| 23>    C      -10.53079        2.39882       -0.01333
| 24>    C       -9.59669        0.17432       -0.01409
| 25>    C       -9.33550        1.56891       -0.01364
| 26>    C       -7.98684        2.01553       -0.01285
| 27>    C       -7.44661        3.36602       -0.01327
| 28>    C       -6.80982        1.14353       -0.01532
| 29>    N       -6.85739        4.36699       -0.01280
| 30>    N       -5.83087        0.51879       -0.01298
| 31>    F      -10.37811        3.75040       -0.01306
| 32>    F      -13.02754        3.95437       -0.01277
| 33>    F      -15.45797        2.86612       -0.01157
| 34>    F      -13.53102       -1.52909       -0.01264
| 35>    F       -8.57645       -0.72178       -0.01465
| 36>    C      -12.07335        0.41901       -0.01321
| 37>    C      -10.90007       -0.37185       -0.01389
| 38>    F      -10.99259       -1.72262       -0.01429
| 39> *
| 40> 
| 41> 
| 42>                          ****END OF INPUT****
================================================================================

                       *****************************
                       * Geometry Optimization Run *
                       *****************************

Geometry optimization settings:
Update method            Update   .... BFGS
Choice of coordinates    CoordSys .... Z-matrix Internals
Initial Hessian          InHess   .... Almoef's Model

Convergence Tolerances:
Energy Change            TolE     ....  5.0000e-06 Eh
Max. Gradient            TolMAXG  ....  3.0000e-04 Eh/bohr
RMS Gradient             TolRMSG  ....  1.0000e-04 Eh/bohr
Max. Displacement        TolMAXD  ....  4.0000e-03 bohr
RMS Displacement         TolRMSD  ....  2.0000e-03 bohr
Strict Convergence                ....  False
------------------------------------------------------------------------------
                        ORCA OPTIMIZATION COORDINATE SETUP
------------------------------------------------------------------------------

The optimization will be done in new redundant internal coordinates
Making redundant internal coordinates   ...  (new redundants) done
Evaluating the initial hessian          ...  (Almloef) done
Evaluating the coordinates              ...  done
Calculating the B-matrix                .... done
Calculating the G-matrix                .... done
Diagonalizing the G-matrix              .... done
Small eigenvalue found = 8.701e-03
Small eigenvalue found = 2.076e-02
The first mode is                       ....   53
The number of degrees of freedom        ....   72

    -----------------------------------------------------------------
                    Redundant Internal Coordinates


    -----------------------------------------------------------------
         Definition                    Initial Value    Approx d2E/dq
    -----------------------------------------------------------------
      1. B(C   1,N   0)                  1.1611         1.297507   
      2. B(C   3,N   2)                  1.1610         1.298022   
      3. B(C   4,C   1)                  1.4615         0.480539   
      4. B(C   4,C   3)                  1.4553         0.491520   
      5. B(C   5,C   4)                  1.4156         0.568809   
      6. B(C   6,C   5)                  1.4203         0.558985   
      7. B(C   7,C   5)                  1.4401         0.519741   
      8. B(C   8,C   6)                  1.4287         0.542027   
      9. B(C   9,C   8)                  1.4287         0.541991   
     10. B(C  10,C   9)                  1.4772         0.453554   
     11. B(C  12,C  11)                  1.4188         0.561991   
     12. B(C  12,C  10)                  1.4552         0.491804   
     13. B(C  13,C  12)                  1.4207         0.558185   
     14. B(C  14,C  13)                  1.4545         0.492921   
     15. B(C  15,C  13)                  1.4648         0.474603   
     16. B(N  16,C  14)                  1.1615         1.295406   
     17. B(N  17,C  15)                  1.1613         1.296374   
     18. B(F  18,C  10)                  1.3602         0.580161   
     19. B(F  19,C   8)                  1.3554         0.590495   
     20. B(F  20,C   6)                  1.3597         0.581149   
     21. B(F  21,C   7)                  1.3589         0.582946   
     22. B(F  22,C  11)                  1.3579         0.585039   
     23. B(C  23,C   9)                  1.4171         0.565559   
     24. B(C  23,C   7)                  1.4632         0.477459   
     25. B(C  24,C  23)                  1.4149         0.570103   
     26. B(C  24,C  11)                  1.4132         0.573777   
     27. B(F  25,C  24)                  1.3539         0.593617   
     28. L(N   0,C   1,C   4,C   3, 2) 180.0060         0.470819   
     29. L(N   0,C   1,C   4,C   3, 1) 175.1627         0.470819   
     30. A(N   2,C   3,C   4)          172.7489         0.472811   
     31. A(C   1,C   4,C   5)          126.0223         0.408436   
     32. A(C   3,C   4,C   5)          128.3993         0.410074   
     33. A(C   1,C   4,C   3)          105.5784         0.398050   
     34. A(C   4,C   5,C   7)          124.7896         0.414157   
     35. A(C   6,C   5,C   7)          114.3890         0.412877   
     36. A(C   4,C   5,C   6)          120.8214         0.419558   
     37. A(C   8,C   6,F  20)          117.2971         0.414319   
     38. A(C   5,C   6,F  20)          119.7505         0.416595   
     39. A(C   5,C   6,C   8)          122.9524         0.415970   
     40. A(C   5,C   7,F  21)          118.1602         0.411467   
     41. A(C   5,C   7,C  23)          122.7662         0.401525   
     42. A(F  21,C   7,C  23)          119.0736         0.405333   
     43. A(C   9,C   8,F  19)          120.2053         0.415491   
     44. A(C   6,C   8,C   9)          123.0144         0.413693   
     45. A(C   6,C   8,F  19)          116.7803         0.415496   
     46. A(C   8,C   9,C  10)          124.2169         0.400857   
     47. A(C  10,C   9,C  23)          120.2448         0.403876   
     48. A(C   8,C   9,C  23)          115.5382         0.416831   
     49. A(C   9,C  10,C  12)          122.3452         0.394073   
     50. A(C  12,C  10,F  18)          118.3279         0.407115   
     51. A(C   9,C  10,F  18)          119.3269         0.401338   
     52. A(C  12,C  11,F  22)          120.6857         0.417489   
     53. A(F  22,C  11,C  24)          115.9707         0.419035   
     54. A(C  12,C  11,C  24)          123.3436         0.420612   
     55. A(C  10,C  12,C  13)          126.9044         0.408749   
     56. A(C  10,C  12,C  11)          114.1650         0.409241   
     57. A(C  11,C  12,C  13)          118.9306         0.418551   
     58. A(C  14,C  13,C  15)          104.7303         0.397380   
     59. A(C  12,C  13,C  15)          125.1441         0.406182   
     60. A(C  12,C  13,C  14)          130.1254         0.408913   
     61. A(C  13,C  14,N  16)          171.3194         0.472883   
     62. L(C  13,C  15,N  17,C  14, 2) 179.6756         0.469671   
     63. L(C  13,C  15,N  17,C  14, 1) 176.0116         0.469671   
     64. A(C   9,C  23,C  24)          116.6193         0.420605   
     65. A(C   7,C  23,C  24)          122.0409         0.408136   
     66. A(C   7,C  23,C   9)          121.3398         0.407558   
     67. A(C  23,C  24,F  25)          120.0640         0.419643   
     68. A(C  11,C  24,F  25)          116.6540         0.420125   
     69. A(C  11,C  24,C  23)          123.2820         0.421689   
     70. D(C   1,C   4,C   3,N   2)     -0.0244         0.014975   
     71. D(C   5,C   4,C   3,N   2)    179.9601         0.014975   
     72. D(C   6,C   5,C   4,C   3)   -179.9902         0.022190   
     73. D(C   7,C   5,C   4,C   3)      0.0052         0.022190   
     74. D(C   7,C   5,C   4,C   1)    179.9869         0.022190   
     75. D(C   6,C   5,C   4,C   1)     -0.0086         0.022190   
     76. D(C   8,C   6,C   5,C   4)    179.9787         0.021401   
     77. D(F  20,C   6,C   5,C   4)     -0.0173         0.021401   
     78. D(F  20,C   6,C   5,C   7)    179.9868         0.021401   
     79. D(C   8,C   6,C   5,C   7)     -0.0172         0.021401   
     80. D(C  23,C   7,C   5,C   6)      0.0189         0.018422   
     81. D(F  21,C   7,C   5,C   6)   -179.9888         0.018422   
     82. D(F  21,C   7,C   5,C   4)      0.0155         0.018422   
     83. D(C  23,C   7,C   5,C   4)   -179.9768         0.018422   
     84. D(C   9,C   8,C   6,C   5)     -0.0007         0.020079   
     85. D(F  19,C   8,C   6,F  20)     -0.0003         0.020079   
     86. D(F  19,C   8,C   6,C   5)   -179.9964         0.020079   
     87. D(C   9,C   8,C   6,F  20)    179.9953         0.020079   
     88. D(C  23,C   9,C   8,F  19)   -179.9870         0.020076   
     89. D(C  23,C   9,C   8,C   6)      0.0174         0.020076   
     90. D(C  10,C   9,C   8,F  19)      0.0149         0.020076   
     91. D(C  10,C   9,C   8,C   6)   -179.9806         0.020076   
     92. D(F  18,C  10,C   9,C  23)   -179.9932         0.014019   
     93. D(F  18,C  10,C   9,C   8)      0.0047         0.014019   
     94. D(C  12,C  10,C   9,C  23)     -0.0034         0.014019   
     95. D(C  12,C  10,C   9,C   8)    179.9945         0.014019   
     96. D(C  13,C  12,C  10,F  18)      0.0427         0.016470   
     97. D(C  13,C  12,C  10,C   9)   -179.9472         0.016470   
     98. D(C  11,C  12,C  10,F  18)   -179.9919         0.016470   
     99. D(C  10,C  12,C  11,F  22)    179.9885         0.021640   
    100. D(C  11,C  12,C  10,C   9)      0.0182         0.016470   
    101. D(C  13,C  12,C  11,C  24)    179.9520         0.021640   
    102. D(C  13,C  12,C  11,F  22)     -0.0431         0.021640   
    103. D(C  10,C  12,C  11,C  24)     -0.0164         0.021640   
    104. D(C  15,C  13,C  12,C  11)      0.1374         0.021337   
    105. D(C  15,C  13,C  12,C  10)   -179.8986         0.021337   
    106. D(C  14,C  13,C  12,C  11)    179.9484         0.021337   
    107. D(C  14,C  13,C  12,C  10)     -0.0877         0.021337   
    108. D(N  16,C  14,C  13,C  15)     -0.3662         0.015060   
    109. D(N  16,C  14,C  13,C  12)    179.7936         0.015060   
    110. D(C  24,C  23,C   9,C  10)     -0.0139         0.021927   
    111. D(C   7,C  23,C   9,C  10)    179.9827         0.021927   
    112. D(C   7,C  23,C   9,C   8)     -0.0155         0.021927   
    113. D(C  24,C  23,C   7,F  21)      0.0014         0.015521   
    114. D(C  24,C  23,C   7,C   5)    179.9936         0.015521   
    115. D(C  24,C  23,C   9,C   8)    179.9880         0.021927   
    116. D(C   9,C  23,C   7,F  21)   -179.9950         0.015521   
    117. D(C   9,C  23,C   7,C   5)     -0.0027         0.015521   
    118. D(F  25,C  24,C  23,C   9)   -179.9885         0.022296   
    119. D(C  11,C  24,C  23,C   9)      0.0163         0.022296   
    120. D(C  11,C  24,C  23,C   7)   -179.9802         0.022296   
    121. D(F  25,C  24,C  11,F  22)     -0.0007         0.022597   
    122. D(F  25,C  24,C  11,C  12)   -179.9959         0.022597   
    123. D(F  25,C  24,C  23,C   7)      0.0150         0.022296   
    124. D(C  23,C  24,C  11,F  22)    179.9947         0.022597   
    125. D(C  23,C  24,C  11,C  12)     -0.0005         0.022597   
    -----------------------------------------------------------------

Number of atoms                         .... 26
Number of degrees of freedom            .... 125

         *************************************************************
         *                GEOMETRY OPTIMIZATION CYCLE   1            *
         *************************************************************
---------------------------------
CARTESIAN COORDINATES (ANGSTROEM)
---------------------------------
  N    -18.199320    1.390420   -0.008500
  C    -17.166520    0.859930   -0.009540
  N    -16.806060   -2.373900   -0.009380
  C    -16.339470   -1.310820   -0.010060
  C    -15.927460    0.084950   -0.010670
  C    -14.614550    0.614160   -0.011760
  C    -14.395600    2.017480   -0.012020
  C    -13.410300   -0.175590   -0.012590
  C    -13.091290    2.600500   -0.012660
  C    -11.891740    1.824440   -0.013080
  C    -10.530790    2.398820   -0.013330
  C     -9.596690    0.174320   -0.014090
  C     -9.335500    1.568910   -0.013640
  C     -7.986840    2.015530   -0.012850
  C     -7.446610    3.366020   -0.013270
  C     -6.809820    1.143530   -0.015320
  N     -6.857390    4.366990   -0.012800
  N     -5.830870    0.518790   -0.012980
  F    -10.378110    3.750400   -0.013060
  F    -13.027540    3.954370   -0.012770
  F    -15.457970    2.866120   -0.011570
  F    -13.531020   -1.529090   -0.012640
  F     -8.576450   -0.721780   -0.014650
  C    -12.073350    0.419010   -0.013210
  C    -10.900070   -0.371850   -0.013890
  F    -10.992590   -1.722620   -0.014290

----------------------------
CARTESIAN COORDINATES (A.U.)
----------------------------
  NO LB      ZA    FRAG     MASS         X           Y           Z
   0 N     7.0000    0    14.007  -34.391731    2.627513   -0.016063
   1 C     6.0000    0    12.011  -32.440021    1.625032   -0.018028
   2 N     7.0000    0    14.007  -31.758851   -4.486021   -0.017726
   3 C     6.0000    0    12.011  -30.877123   -2.477091   -0.019011
   4 C     6.0000    0    12.011  -30.098537    0.160532   -0.020163
   5 C     6.0000    0    12.011  -27.617497    1.160594   -0.022223
   6 C     6.0000    0    12.011  -27.203742    3.812485   -0.022715
   7 C     6.0000    0    12.011  -25.341794   -0.331817   -0.023792
   8 C     6.0000    0    12.011  -24.738953    4.914233   -0.023924
   9 C     6.0000    0    12.011  -22.472132    3.447692   -0.024718
  10 C     6.0000    0    12.011  -19.900309    4.533113   -0.025190
  11 C     6.0000    0    12.011  -18.135116    0.329417   -0.026626
  12 C     6.0000    0    12.011  -17.641538    2.964810   -0.025776
  13 C     6.0000    0    12.011  -15.092940    3.808800   -0.024283
  14 C     6.0000    0    12.011  -14.072054    6.360856   -0.025077
  15 C     6.0000    0    12.011  -12.868695    2.160959   -0.028951
  16 N     7.0000    0    14.007  -12.958589    8.252415   -0.024188
  17 N     7.0000    0    14.007  -11.018747    0.980371   -0.024529
  18 F     9.0000    0    18.998  -19.611786    7.087229   -0.024680
  19 F     9.0000    0    18.998  -24.618483    7.472676   -0.024132
  20 F     9.0000    0    18.998  -29.211330    5.416182   -0.021864
  21 F     9.0000    0    18.998  -25.569922   -2.889561   -0.023886
  22 F     9.0000    0    18.998  -16.207142   -1.363967   -0.027684
  23 C     6.0000    0    12.011  -22.815325    0.791814   -0.024963
  24 C     6.0000    0    12.011  -20.598147   -0.702695   -0.026248
  25 F     9.0000    0    18.998  -20.772985   -3.255280   -0.027004

--------------------------------
INTERNAL COORDINATES (ANGSTROEM)
--------------------------------
 N      0   0   0     0.000000000000     0.00000000     0.00000000
 C      1   0   0     1.161075605506     0.00000000     0.00000000
 N      2   1   0     3.253857388716   123.54718180     0.00000000
 C      3   2   1     1.160967603725    30.05711338   180.00131204
 C      4   3   2     1.455309762594   172.74893103     0.00000000
 C      5   4   3     1.415555396408   128.39926402   179.96012865
 C      6   5   4     1.420297923853   120.82141529   180.00978582
 C      6   5   4     1.440112430993   124.78959335     0.00000000
 C      7   6   5     1.428683767004   122.95235872   179.97867173
 C      9   7   6     1.428702034190   123.01437852     0.00000000
 C     10   9   7     1.477192387403   124.21692207   180.01939216
 C     11  10   9     2.412663183621    89.89639195   180.00429108
 C     12  11  10     1.418838146760    33.38616570   180.01536632
 C     13  12  11     1.420687806698   118.93064615   179.96841590
 C     14  13  12     1.454534932341   130.12535081   179.94835718
 C     14  13  12     1.464843398217   125.14410532     0.13742490
 N     15  14  13     1.161516840257   171.31940996   179.79363362
 N     16  14  13     1.161313327961   176.00626449   182.93585882
 F     11  10   9     1.360176367866   119.32689670     0.00000000
 F      9   7   6     1.355370079167   116.78031086   180.00360704
 F      7   6   5     1.359713230428   119.75051933     0.00000000
 F      8   6   5     1.358872904616   118.16017295     0.00000000
 F     12  11  10     1.357897338240   154.07182009   179.99281165
 C     10   9   7     1.417115271917   115.53824957     0.00000000
 C     12  11  10     1.413188286570    89.95744685     0.00000000
 F     25  12  11     1.353934896256   116.65400331   179.99503241

---------------------------
INTERNAL COORDINATES (A.U.)
---------------------------
 N      0   0   0     0.000000000000     0.00000000     0.00000000
 C      1   0   0     2.194114915182     0.00000000     0.00000000
 N      2   1   0     6.148899343509   123.54718180     0.00000000
 C      3   2   1     2.193910821396    30.05711338   180.00131204
 C      4   3   2     2.750136891324   172.74893103     0.00000000
 C      5   4   3     2.675012026606   128.39926402   179.96012865
 C      6   5   4     2.683974104658   120.82141529   180.00978582
 C      6   5   4     2.721418096632   124.78959335     0.00000000
 C      7   6   5     2.699821051616   122.95235872   179.97867173
 C      9   7   6     2.699855571596   123.01437852     0.00000000
 C     10   9   7     2.791489059304   124.21692207   180.01939216
 C     11  10   9     4.559272670438    89.89639195   180.00429108
 C     12  11  10     2.681215525736    33.38616570   180.01536632
 C     13  12  11     2.684710876460   118.93064615   179.96841590
 C     14  13  12     2.748672674346   130.12535081   179.94835718
 C     14  13  12     2.768152851713   125.14410532     0.13742490
 N     15  14  13     2.194948728023   171.31940996   179.79363362
 N     16  14  13     2.194564145519   176.00626449   182.93585882
 F     11  10   9     2.570360829098   119.32689670     0.00000000
 F      9   7   6     2.561278259736   116.78031086   180.00360704
 F      7   6   5     2.569485626178   119.75051933     0.00000000
 F      8   6   5     2.567897640531   118.16017295     0.00000000
 F     12  11  10     2.566054087255   154.07182009   179.99281165
 C     10   9   7     2.677959764120   115.53824957     0.00000000
 C     12  11  10     2.670538837284    89.95744685     0.00000000
 F     25  12  11     2.558566157083   116.65400331   179.99503241

---------------------
BASIS SET INFORMATION
---------------------
There are 3 groups of distinct atoms

 Group   1 Type N   : 11s6p2d1f contracted to 5s3p2d1f pattern {62111/411/11/1}
 Group   2 Type C   : 11s6p2d1f contracted to 5s3p2d1f pattern {62111/411/11/1}
 Group   3 Type F   : 11s6p2d1f contracted to 5s3p2d1f pattern {62111/411/11/1}

Atom   0N    basis set group =>   1
Atom   1C    basis set group =>   2
Atom   2N    basis set group =>   1
Atom   3C    basis set group =>   2
Atom   4C    basis set group =>   2
Atom   5C    basis set group =>   2
Atom   6C    basis set group =>   2
Atom   7C    basis set group =>   2
Atom   8C    basis set group =>   2
Atom   9C    basis set group =>   2
Atom  10C    basis set group =>   2
Atom  11C    basis set group =>   2
Atom  12C    basis set group =>   2
Atom  13C    basis set group =>   2
Atom  14C    basis set group =>   2
Atom  15C    basis set group =>   2
Atom  16N    basis set group =>   1
Atom  17N    basis set group =>   1
Atom  18F    basis set group =>   3
Atom  19F    basis set group =>   3
Atom  20F    basis set group =>   3
Atom  21F    basis set group =>   3
Atom  22F    basis set group =>   3
Atom  23C    basis set group =>   2
Atom  24C    basis set group =>   2
Atom  25F    basis set group =>   3
---------------------------------
AUXILIARY/J BASIS SET INFORMATION
---------------------------------
There are 3 groups of distinct atoms

 Group   1 Type N   : 12s5p4d2f1g contracted to 6s4p3d1f1g pattern {711111/2111/211/2/1}
 Group   2 Type C   : 12s5p4d2f1g contracted to 6s4p3d1f1g pattern {711111/2111/211/2/1}
 Group   3 Type F   : 12s5p4d2f1g contracted to 6s4p3d1f1g pattern {711111/2111/211/2/1}

Atom   0N    basis set group =>   1
Atom   1C    basis set group =>   2
Atom   2N    basis set group =>   1
Atom   3C    basis set group =>   2
Atom   4C    basis set group =>   2
Atom   5C    basis set group =>   2
Atom   6C    basis set group =>   2
Atom   7C    basis set group =>   2
Atom   8C    basis set group =>   2
Atom   9C    basis set group =>   2
Atom  10C    basis set group =>   2
Atom  11C    basis set group =>   2
Atom  12C    basis set group =>   2
Atom  13C    basis set group =>   2
Atom  14C    basis set group =>   2
Atom  15C    basis set group =>   2
Atom  16N    basis set group =>   1
Atom  17N    basis set group =>   1
Atom  18F    basis set group =>   3
Atom  19F    basis set group =>   3
Atom  20F    basis set group =>   3
Atom  21F    basis set group =>   3
Atom  22F    basis set group =>   3
Atom  23C    basis set group =>   2
Atom  24C    basis set group =>   2
Atom  25F    basis set group =>   3


           ************************************************************
           *        Program running with 4 parallel MPI-processes     *
           *              working on a common directory               *
           ************************************************************
------------------------------------------------------------------------------
                           ORCA GTO INTEGRAL CALCULATION
------------------------------------------------------------------------------

                         BASIS SET STATISTICS AND STARTUP INFO

 # of primitive gaussian shells          ...  520
 # of primitive gaussian functions       ... 1196
 # of contracted shells                  ...  286
 # of contracted basis functions         ...  806
 Highest angular momentum                ...    3
 Maximum contraction depth               ...    6
 Integral package used                   ... LIBINT
 Integral threshhold            Thresh   ...  2.500e-11
 Primitive cut-off              TCut     ...  2.500e-12


------------------------------ INTEGRAL EVALUATION ----------------------------


 * One electron integrals 
 Pre-screening matrix                    ... done
 Shell pair data                         ... done (   0.009 sec)



           ************************************************************
           *        Program running with 4 parallel MPI-processes     *
           *              working on a common directory               *
           ************************************************************
-------------------------------------------------------------------------------
                                 ORCA SCF
-------------------------------------------------------------------------------

------------
SCF SETTINGS
------------
Hamiltonian:
 Density Functional     Method          .... DFT(GTOs)
 Exchange Functional    Exchange        .... WB97X-D3
 Correlation Functional Correlation     .... WB97X-D3
 Gradients option       PostSCFGGA      .... off
 Hybrid DFT is turned on
   Fraction HF Exchange ScalHFX         ....  0.195728
   Scaling of DF-GGA-X  ScalDFX         ....  0.000000
   Scaling of DF-GGA-C  ScalDFC         ....  1.000000
   Scaling of DF-LDA-C  ScalLDAC        ....  1.000000
   Perturbative correction              ....  0.000000
   Density functional embedding theory  .... OFF
 Long-range corrected/Screened/Range-Separated Hybrid DFT is turned on
   Amount of maximum screened exact exchange              ....  0.804272
   Range separation parameter mu (erf(mu*r12)/r12)        ....  0.250000


General Settings:
 Integral files         IntName         .... F6-TCNNQ
 Hartree-Fock type      HFTyp           .... RHF
 Total Charge           Charge          ....    0
 Multiplicity           Mult            ....    1
 Number of Electrons    NEL             ....  178
 Basis Dimension        Dim             ....  806
 Nuclear Repulsion      ENuc            ....   2111.0950643895 Eh

Convergence Acceleration:
 DIIS                   CNVDIIS         .... on
   Start iteration      DIISMaxIt       ....    12
   Startup error        DIISStart       ....  0.200000
   # of expansion vecs  DIISMaxEq       ....     5
   Bias factor          DIISBfac        ....   1.050
   Max. coefficient     DIISMaxC        ....  10.000
 Newton-Raphson         CNVNR           .... off
 SOSCF                  CNVSOSCF        .... on
   Start iteration      SOSCFMaxIt      ....   150
   Startup grad/error   SOSCFStart      ....  0.003300
 Level Shifting         CNVShift        .... on
   Level shift para.    LevelShift      ....    0.2500
   Turn off err/grad.   ShiftErr        ....    0.0010
 Zerner damping         CNVZerner       .... off
 Static damping         CNVDamp         .... on
   Fraction old density DampFac         ....    0.7000
   Max. Damping (<1)    DampMax         ....    0.9800
   Min. Damping (>=0)   DampMin         ....    0.0000
   Turn off err/grad.   DampErr         ....    0.1000
 Fernandez-Rico         CNVRico         .... off

SCF Procedure:
 Maximum # iterations   MaxIter         ....   125
 SCF integral mode      SCFMode         .... Direct
   Integral package                     .... LIBINT
 Reset frequency        DirectResetFreq ....    20
 Integral Threshold     Thresh          ....  2.500e-11 Eh
 Primitive CutOff       TCut            ....  2.500e-12 Eh

Convergence Tolerance:
 Convergence Check Mode ConvCheckMode   .... Total+1el-Energy
 Convergence forced     ConvForced      .... 0
 Energy Change          TolE            ....  1.000e-08 Eh
 1-El. energy change                    ....  1.000e-05 Eh
 Orbital Gradient       TolG            ....  1.000e-05
 Orbital Rotation angle TolX            ....  1.000e-05
 DIIS Error             TolErr          ....  5.000e-07


Diagonalization of the overlap matrix:
Smallest eigenvalue                        ... 8.597e-06
Time for diagonalization                   ...    0.153 sec
Threshold for overlap eigenvalues          ... 1.000e-08
Number of eigenvalues below threshold      ... 0
Time for construction of square roots      ...    0.081 sec
Total time needed                          ...    0.237 sec

-------------------
DFT GRID GENERATION
-------------------

General Integration Accuracy     IntAcc      ...  4.340
Radial Grid Type                 RadialGrid  ... Gauss-Chebyshev
Angular Grid (max. acc.)         AngularGrid ... Lebedev-110
Angular grid pruning method      GridPruning ... 3 (G Style)
Weight generation scheme         WeightScheme... Becke
Basis function cutoff            BFCut       ...    1.0000e-11
Integration weight cutoff        WCut        ...    1.0000e-14
Grids for H and He will be reduced by one unit

# of grid points (after initial pruning)     ...  43744 (   0.0 sec)
# of grid points (after weights+screening)   ...  40035 (   0.1 sec)
nearest neighbour list constructed           ...    0.0 sec
Grid point re-assignment to atoms done       ...    0.0 sec
Grid point division into batches done        ...    0.1 sec
Reduced shell lists constructed in    0.3 sec

Total number of grid points                  ...    40035
Total number of batches                      ...      640
Average number of points per batch           ...       62
Average number of grid points per atom       ...     1540
Average number of shells per batch           ...   103.69 (36.26%)
Average number of basis functions per batch  ...   290.09 (35.99%)
Average number of large shells per batch     ...    71.02 (68.49%)
Average number of large basis fcns per batch ...   199.17 (68.66%)
Maximum spatial batch extension              ...  14.45, 20.95, 38.86 au
Average spatial batch extension              ...   0.80,  0.88,  1.26 au

Time for grid setup =    0.357 sec

------------------------------
INITIAL GUESS: MODEL POTENTIAL
------------------------------
Loading Hartree-Fock densities                     ... done
Calculating cut-offs                               ... done
Setting up the integral package                    ... done
Initializing the effective Hamiltonian             ... done
Starting the Coulomb interaction                   ... done (   0.6 sec)
Reading the grid                                   ... done
Mapping shells                                     ... done
Starting the XC term evaluation                    ... done (   0.5 sec)
  promolecular density results
     # of electrons  =    177.999075059
     EX              =   -167.599715940
     EC              =     -6.049925792
     EX+EC           =   -173.649641732
Transforming the Hamiltonian                       ... done (   0.1 sec)
Diagonalizing the Hamiltonian                      ... done (   0.1 sec)
Back transforming the eigenvectors                 ... done (   0.0 sec)
Now organizing SCF variables                       ... done
                      ------------------
                      INITIAL GUESS DONE (   1.8 sec)
                      ------------------

--------------------
CPCM SOLVATION MODEL
--------------------
CPCM parameters:
  Epsilon                                         ...       3.0000
  Refrac                                          ...       1.3300
  Rsolv                                           ...       1.3000
  Surface type                                    ...    GEPOL SES
  Epsilon function type                           ...         CPCM
Radii:
 Radius for N  used is    3.4582 Bohr (=   1.8300 Ang.)
 Radius for C  used is    3.7795 Bohr (=   2.0000 Ang.)
 Radius for F  used is    3.2503 Bohr (=   1.7200 Ang.)
Calculating surface                               ...        done! (  0.0s)
GEPOL surface points                              ...          968
GEPOL Volume                                      ...    2362.9728
GEPOL Surface-area                                ...    1173.2776
Calculating surface distance matrix               ...        done! (  0.0s)
Performing Cholesky decomposition & store         ...        done! (  0.0s)
Overall time for CPCM initialization              ...                 0.1s
--------------
SCF ITERATIONS
--------------
ITER       Energy         Delta-E        Max-DP      RMS-DP      [F,P]     Damp
               ***  Starting incremental Fock matrix formation  ***
  0  -1427.1081393639   0.000000000000 0.05043552  0.00068979  0.2479197 0.7000
  1  -1427.3426207413  -0.234481377414 0.04917588  0.00055471  0.1181662 0.7000
                               ***Turning on DIIS***
  2  -1427.4441376455  -0.101516904214 0.06032119  0.00106480  0.0428347 0.0000
  3  -1427.6169428781  -0.172805232578 0.05759326  0.00047075  0.0659064 0.0000
  4  -1427.6503166992  -0.033373821043 0.01862668  0.00020180  0.0141128 0.0000
  5  -1427.6547227984  -0.004406099283 0.01212489  0.00012469  0.0060417 0.0000
  6  -1427.6572877482  -0.002564949795 0.00816955  0.00009975  0.0047020 0.0000
  7  -1427.6593245437  -0.002036795483 0.00586080  0.00009404  0.0036115 0.0000
  8  -1427.6609203746  -0.001595830881 0.00267578  0.00004999  0.0027618 0.0000
  9  -1427.6617933920  -0.000873017426 0.00244229  0.00004865  0.0022456 0.0000
 10  -1427.6623767919  -0.000583399866 0.00218109  0.00003647  0.0017415 0.0000
 11  -1427.6627360478  -0.000359255887 0.00154333  0.00002360  0.0012374 0.0000
 12  -1427.6629202392  -0.000184191467 0.00282410  0.00004522  0.0008079 0.0000
                      *** Initiating the SOSCF procedure ***
                           *** Shutting down DIIS ***
                      *** Re-Reading the Fockian *** 
                      *** Removing any level shift *** 
ITER      Energy       Delta-E        Grad      Rot      Max-DP    RMS-DP
 13  -1427.66310551  -0.0001852702  0.001156  0.001156  0.000614  0.000011
               *** Restarting incremental Fock matrix formation ***
 14  -1427.66312131  -0.0000158027  0.000317  0.001646  0.000269  0.000004
 15  -1427.66312409  -0.0000027780  0.000158  0.001743  0.000239  0.000004
 16  -1427.66312674  -0.0000026522  0.000053  0.000660  0.000149  0.000003
 17  -1427.66312687  -0.0000001227  0.000067  0.000148  0.000070  0.000001
 18  -1427.66312708  -0.0000002101  0.000020  0.000133  0.000027  0.000000
 19  -1427.66312710  -0.0000000237  0.000011  0.000182  0.000023  0.000000
 20  -1427.66312711  -0.0000000092  0.000005  0.000066  0.000014  0.000000
 21  -1427.66312709   0.0000000145  0.000003  0.000011  0.000009  0.000000
                  ***Gradient check signals convergence***
              ***Rediagonalizing the Fockian in SOSCF/NRSCF***

               *****************************************************
               *                     SUCCESS                       *
               *           SCF CONVERGED AFTER  22 CYCLES          *
               *****************************************************

Setting up the final grid:

General Integration Accuracy     IntAcc      ...  4.670
Radial Grid Type                 RadialGrid  ... Gauss-Chebyshev
Angular Grid (max. acc.)         AngularGrid ... Lebedev-302
Angular grid pruning method      GridPruning ... 3 (G Style)
Weight generation scheme         WeightScheme... Becke
Basis function cutoff            BFCut       ...    1.0000e-11
Integration weight cutoff        WCut        ...    1.0000e-14
Grids for H and He will be reduced by one unit

# of grid points (after initial pruning)     ... 161872 (   0.0 sec)
# of grid points (after weights+screening)   ... 145635 (   0.3 sec)
nearest neighbour list constructed           ...    0.0 sec
Grid point re-assignment to atoms done       ...    0.0 sec
Grid point division into batches done        ...    0.7 sec
Reduced shell lists constructed in    1.3 sec

Total number of grid points                  ...   145635
Total number of batches                      ...     2287
Average number of points per batch           ...       63
Average number of grid points per atom       ...     5601
Average number of shells per batch           ...    92.82 (32.45%)
Average number of basis functions per batch  ...   257.17 (31.91%)
Average number of large shells per batch     ...    62.84 (67.70%)
Average number of large basis fcns per batch ...   174.42 (67.82%)
Maximum spatial batch extension              ...  24.77, 19.46, 21.19 au
Average spatial batch extension              ...   0.60,  0.59,  0.72 au

Final grid set up in    1.7 sec
Final integration                            ... done (   1.9 sec)
Change in XC energy                          ...     0.003387791
Integrated number of electrons               ...   177.999931880
Previous integrated no of electrons          ...   178.000385188

----------------
TOTAL SCF ENERGY
----------------

Total Energy       :        -1427.65973928 Eh          -38848.59653 eV

Components:
Nuclear Repulsion  :         2111.09506439 Eh           57445.81719 eV
Electronic Energy  :        -3538.75480367 Eh          -96294.41372 eV
One Electron Energy:        -6149.37182196 Eh         -167332.91432 eV
Two Electron Energy:         2610.61701829 Eh           71038.50060 eV
CPCM Dielectric    :           -0.02266564 Eh              -0.61676 eV

Virial components:
Potential Energy   :        -2848.35013843 Eh          -77507.54767 eV
Kinetic Energy     :         1420.69039915 Eh           38658.95114 eV
Virial Ratio       :            2.00490560


DFT components:
N(Alpha)           :       88.999965939788 electrons
N(Beta)            :       88.999965939788 electrons
N(Total)           :      177.999931879575 electrons
E(XC)              :     -124.020527894363 Eh       
DFET-embed. en.    :        0.000000000000 Eh       
CPCM Solvation Model Properties:
Surface-charge          :           -0.02624776
Charge-correction       :            0.00030125 Eh               0.00820 eV
Free-energy (cav+disp)  :            0.00564660 Eh               0.15365 eV
Corrected G(solv)       :        -1427.65379144 Eh          -38848.43468 eV

---------------
SCF CONVERGENCE
---------------

  Last Energy change         ...    2.0502e-08  Tolerance :   1.0000e-08
  Last MAX-Density change    ...    1.4084e-05  Tolerance :   1.0000e-07
  Last RMS-Density change    ...    1.6084e-07  Tolerance :   5.0000e-09
  Last Orbital Gradient      ...    7.1402e-07  Tolerance :   1.0000e-05
  Last Orbital Rotation      ...    3.7120e-06  Tolerance :   1.0000e-05

             **** THE GBW FILE WAS UPDATED (F6-TCNNQ.gbw) ****
             **** DENSITY FILE WAS UPDATED (F6-TCNNQ.scfp) ****
             **** ENERGY FILE WAS UPDATED (F6-TCNNQ.en.tmp) ****
             **** THE GBW FILE WAS UPDATED (F6-TCNNQ.gbw) ****
             **** DENSITY FILE WAS UPDATED (F6-TCNNQ.scfp) ****
----------------
ORBITAL ENERGIES
----------------

  NO   OCC          E(Eh)            E(eV) 
   0   2.0000     -24.870136      -676.7508 
   1   2.0000     -24.868887      -676.7168 
   2   2.0000     -24.855557      -676.3541 
   3   2.0000     -24.853613      -676.3012 
   4   2.0000     -24.853419      -676.2959 
   5   2.0000     -24.851935      -676.2555 
   6   2.0000     -14.463578      -393.5740 
   7   2.0000     -14.463394      -393.5690 
   8   2.0000     -14.461166      -393.5083 
   9   2.0000     -14.459368      -393.4594 
  10   2.0000     -10.482446      -285.2419 
  11   2.0000     -10.477901      -285.1182 
  12   2.0000     -10.455336      -284.5042 
  13   2.0000     -10.449935      -284.3572 
  14   2.0000     -10.444085      -284.1980 
  15   2.0000     -10.440400      -284.0977 
  16   2.0000     -10.422376      -283.6073 
  17   2.0000     -10.422343      -283.6064 
  18   2.0000     -10.415346      -283.4160 
  19   2.0000     -10.412638      -283.3423 
  20   2.0000     -10.399078      -282.9733 
  21   2.0000     -10.394712      -282.8545 
  22   2.0000     -10.366026      -282.0739 
  23   2.0000     -10.366001      -282.0732 
  24   2.0000     -10.364878      -282.0427 
  25   2.0000     -10.363602      -282.0079 
  26   2.0000      -1.410920       -38.3931 
  27   2.0000      -1.409888       -38.3650 
  28   2.0000      -1.402107       -38.1533 
  29   2.0000      -1.401754       -38.1437 
  30   2.0000      -1.388168       -37.7740 
  31   2.0000      -1.386942       -37.7406 
  32   2.0000      -1.086471       -29.5644 
  33   2.0000      -1.075578       -29.2680 
  34   2.0000      -1.070018       -29.1167 
  35   2.0000      -1.054709       -28.7001 
  36   2.0000      -1.053671       -28.6718 
  37   2.0000      -1.041177       -28.3319 
  38   2.0000      -1.003955       -27.3190 
  39   2.0000      -0.965519       -26.2731 
  40   2.0000      -0.942026       -25.6338 
  41   2.0000      -0.918958       -25.0061 
  42   2.0000      -0.896923       -24.4065 
  43   2.0000      -0.836476       -22.7617 
  44   2.0000      -0.828652       -22.5488 
  45   2.0000      -0.802339       -21.8327 
  46   2.0000      -0.752572       -20.4785 
  47   2.0000      -0.751320       -20.4444 
  48   2.0000      -0.744408       -20.2564 
  49   2.0000      -0.724280       -19.7087 
  50   2.0000      -0.711933       -19.3727 
  51   2.0000      -0.706821       -19.2336 
  52   2.0000      -0.685663       -18.6578 
  53   2.0000      -0.675694       -18.3866 
  54   2.0000      -0.673309       -18.3217 
  55   2.0000      -0.664584       -18.0843 
  56   2.0000      -0.662236       -18.0204 
  57   2.0000      -0.647166       -17.6103 
  58   2.0000      -0.643278       -17.5045 
  59   2.0000      -0.641689       -17.4613 
  60   2.0000      -0.639647       -17.4057 
  61   2.0000      -0.627574       -17.0772 
  62   2.0000      -0.617363       -16.7993 
  63   2.0000      -0.607398       -16.5281 
  64   2.0000      -0.603962       -16.4346 
  65   2.0000      -0.587417       -15.9844 
  66   2.0000      -0.573215       -15.5980 
  67   2.0000      -0.567330       -15.4378 
  68   2.0000      -0.552770       -15.0416 
  69   2.0000      -0.552691       -15.0395 
  70   2.0000      -0.549581       -14.9548 
  71   2.0000      -0.532220       -14.4824 
  72   2.0000      -0.529676       -14.4132 
  73   2.0000      -0.525717       -14.3055 
  74   2.0000      -0.513071       -13.9614 
  75   2.0000      -0.512595       -13.9484 
  76   2.0000      -0.505987       -13.7686 
  77   2.0000      -0.504990       -13.7415 
  78   2.0000      -0.484298       -13.1784 
  79   2.0000      -0.479615       -13.0510 
  80   2.0000      -0.478595       -13.0232 
  81   2.0000      -0.475609       -12.9420 
  82   2.0000      -0.474420       -12.9096 
  83   2.0000      -0.458502       -12.4765 
  84   2.0000      -0.456444       -12.4205 
  85   2.0000      -0.436500       -11.8778 
  86   2.0000      -0.423353       -11.5200 
  87   2.0000      -0.352218        -9.5843 
  88   2.0000      -0.317673        -8.6443 
  89   0.0000      -0.160503        -4.3675 
  90   0.0000      -0.044284        -1.2050 
  91   0.0000      -0.011577        -0.3150 
  92   0.0000       0.034827         0.9477 
  93   0.0000       0.041005         1.1158 
  94   0.0000       0.041639         1.1331 
  95   0.0000       0.064956         1.7675 
  96   0.0000       0.070921         1.9299 
  97   0.0000       0.088220         2.4006 
  98   0.0000       0.092798         2.5252 
  99   0.0000       0.094166         2.5624 
 100   0.0000       0.097255         2.6464 
 101   0.0000       0.116168         3.1611 
 102   0.0000       0.130565         3.5529 
 103   0.0000       0.132724         3.6116 
 104   0.0000       0.138007         3.7554 
 105   0.0000       0.147603         4.0165 
 106   0.0000       0.164635         4.4800 
 107   0.0000       0.167394         4.5550 
 108   0.0000       0.168270         4.5789 
 109   0.0000       0.180848         4.9211 
 110   0.0000       0.184884         5.0309 
 111   0.0000       0.203391         5.5346 
 112   0.0000       0.207686         5.6514 
 113   0.0000       0.216741         5.8978 
 114   0.0000       0.219548         5.9742 
 115   0.0000       0.230741         6.2788 
 116   0.0000       0.231995         6.3129 
 117   0.0000       0.240059         6.5323 
 118   0.0000       0.244224         6.6457 
 119   0.0000       0.253386         6.8950 
 120   0.0000       0.256071         6.9680 
 121   0.0000       0.263104         7.1594 
 122   0.0000       0.264879         7.2077 
 123   0.0000       0.276953         7.5363 
 124   0.0000       0.282661         7.6916 
 125   0.0000       0.283373         7.7110 
 126   0.0000       0.293225         7.9791 
 127   0.0000       0.301553         8.2057 
 128   0.0000       0.306413         8.3379 
 129   0.0000       0.308650         8.3988 
 130   0.0000       0.309657         8.4262 
 131   0.0000       0.312304         8.4982 
 132   0.0000       0.319959         8.7065 
 133   0.0000       0.326154         8.8751 
 134   0.0000       0.326880         8.8948 
 135   0.0000       0.329759         8.9732 
 136   0.0000       0.332637         9.0515 
 137   0.0000       0.340670         9.2701 
 138   0.0000       0.343569         9.3490 
 139   0.0000       0.349335         9.5059 
 140   0.0000       0.355034         9.6610 
 141   0.0000       0.356589         9.7033 
 142   0.0000       0.367721        10.0062 
 143   0.0000       0.372085        10.1250 
 144   0.0000       0.380150        10.3444 
 145   0.0000       0.389251        10.5921 
 146   0.0000       0.390578        10.6282 
 147   0.0000       0.405923        11.0457 
 148   0.0000       0.408271        11.1096 
 149   0.0000       0.409973        11.1559 
 150   0.0000       0.417302        11.3554 
 151   0.0000       0.422096        11.4858 
 152   0.0000       0.426326        11.6009 
 153   0.0000       0.429749        11.6941 
 154   0.0000       0.439095        11.9484 
 155   0.0000       0.445992        12.1361 
 156   0.0000       0.451707        12.2916 
 157   0.0000       0.455456        12.3936 
 158   0.0000       0.458986        12.4896 
 159   0.0000       0.481667        13.1068 
 160   0.0000       0.481873        13.1124 
 161   0.0000       0.483345        13.1525 
 162   0.0000       0.486405        13.2358 
 163   0.0000       0.498142        13.5551 
 164   0.0000       0.500958        13.6318 
 165   0.0000       0.510475        13.8907 
 166   0.0000       0.520646        14.1675 
 167   0.0000       0.522686        14.2230 
 168   0.0000       0.528283        14.3753 
 169   0.0000       0.534978        14.5575 
 170   0.0000       0.539105        14.6698 
 171   0.0000       0.548871        14.9355 
 172   0.0000       0.556386        15.1400 
 173   0.0000       0.556785        15.1509 
 174   0.0000       0.567284        15.4366 
 175   0.0000       0.573556        15.6072 
 176   0.0000       0.578808        15.7502 
 177   0.0000       0.578943        15.7538 
 178   0.0000       0.584283        15.8992 
 179   0.0000       0.593339        16.1456 
 180   0.0000       0.597739        16.2653 
 181   0.0000       0.599817        16.3219 
 182   0.0000       0.612264        16.6605 
 183   0.0000       0.619048        16.8451 
 184   0.0000       0.621571        16.9138 
 185   0.0000       0.626115        17.0375 
 186   0.0000       0.628342        17.0981 
 187   0.0000       0.631912        17.1952 
 188   0.0000       0.636017        17.3069 
 189   0.0000       0.640059        17.4169 
 190   0.0000       0.640443        17.4273 
 191   0.0000       0.640628        17.4324 
 192   0.0000       0.652287        17.7496 
 193   0.0000       0.653426        17.7806 
 194   0.0000       0.672879        18.3100 
 195   0.0000       0.680860        18.5272 
 196   0.0000       0.687560        18.7095 
 197   0.0000       0.689217        18.7545 
 198   0.0000       0.698091        18.9960 
 199   0.0000       0.700957        19.0740 
 200   0.0000       0.712753        19.3950 
 201   0.0000       0.726445        19.7676 
 202   0.0000       0.731064        19.8933 
 203   0.0000       0.737788        20.0762 
 204   0.0000       0.740395        20.1472 
 205   0.0000       0.749433        20.3931 
 206   0.0000       0.750225        20.4147 
 207   0.0000       0.762472        20.7479 
 208   0.0000       0.765657        20.8346 
 209   0.0000       0.767808        20.8931 
 210   0.0000       0.776256        21.1230 
 211   0.0000       0.777118        21.1464 
 212   0.0000       0.784518        21.3478 
 213   0.0000       0.790583        21.5128 
 214   0.0000       0.794713        21.6252 
 215   0.0000       0.799609        21.7585 
 216   0.0000       0.802452        21.8358 
 217   0.0000       0.807172        21.9643 
 218   0.0000       0.816389        22.2151 
 219   0.0000       0.824990        22.4491 
 220   0.0000       0.828677        22.5494 
 221   0.0000       0.829171        22.5629 
 222   0.0000       0.836753        22.7692 
 223   0.0000       0.847952        23.0740 
 224   0.0000       0.866140        23.5689 
 225   0.0000       0.866433        23.5769 
 226   0.0000       0.866757        23.5857 
 227   0.0000       0.872069        23.7302 
 228   0.0000       0.878956        23.9176 
 229   0.0000       0.879090        23.9212 
 230   0.0000       0.880893        23.9703 
 231   0.0000       0.885874        24.1059 
 232   0.0000       0.897941        24.4342 
 233   0.0000       0.899926        24.4882 
 234   0.0000       0.905437        24.6382 
 235   0.0000       0.909894        24.7595 
 236   0.0000       0.922636        25.1062 
 237   0.0000       0.931352        25.3434 
 238   0.0000       0.935780        25.4639 
 239   0.0000       0.938825        25.5467 
 240   0.0000       0.941413        25.6172 
 241   0.0000       0.957886        26.0654 
 242   0.0000       0.962525        26.1916 
 243   0.0000       0.966505        26.2999 
 244   0.0000       0.982768        26.7425 
 245   0.0000       0.988628        26.9019 
 246   0.0000       0.996645        27.1201 
 247   0.0000       1.005691        27.3663 
 248   0.0000       1.005888        27.3716 
 249   0.0000       1.024022        27.8651 
 250   0.0000       1.024441        27.8765 
 251   0.0000       1.035689        28.1825 
 252   0.0000       1.037846        28.2412 
 253   0.0000       1.046375        28.4733 
 254   0.0000       1.052019        28.6269 
 255   0.0000       1.058357        28.7994 
 256   0.0000       1.078392        29.3445 
 257   0.0000       1.080179        29.3932 
 258   0.0000       1.089525        29.6475 
 259   0.0000       1.096666        29.8418 
 260   0.0000       1.120745        30.4970 
 261   0.0000       1.126064        30.6417 
 262   0.0000       1.134459        30.8702 
 263   0.0000       1.136061        30.9138 
 264   0.0000       1.147132        31.2150 
 265   0.0000       1.151043        31.3215 
 266   0.0000       1.169542        31.8248 
 267   0.0000       1.178154        32.0592 
 268   0.0000       1.181146        32.1406 
 269   0.0000       1.193173        32.4679 
 270   0.0000       1.206854        32.8402 
 271   0.0000       1.211448        32.9652 
 272   0.0000       1.224965        33.3330 
 273   0.0000       1.229034        33.4437 
 274   0.0000       1.230361        33.4798 
 275   0.0000       1.231443        33.5093 
 276   0.0000       1.249642        34.0045 
 277   0.0000       1.257673        34.2230 
 278   0.0000       1.263497        34.3815 
 279   0.0000       1.266583        34.4655 
 280   0.0000       1.288445        35.0604 
 281   0.0000       1.292511        35.1710 
 282   0.0000       1.297164        35.2976 
 283   0.0000       1.299564        35.3629 
 284   0.0000       1.306150        35.5421 
 285   0.0000       1.319292        35.8998 
 286   0.0000       1.323011        36.0010 
 287   0.0000       1.323470        36.0134 
 288   0.0000       1.328523        36.1509 
 289   0.0000       1.331681        36.2369 
 290   0.0000       1.339651        36.4538 
 291   0.0000       1.340524        36.4775 
 292   0.0000       1.346133        36.6301 
 293   0.0000       1.355553        36.8865 
 294   0.0000       1.367833        37.2206 
 295   0.0000       1.372831        37.3566 
 296   0.0000       1.384524        37.6748 
 297   0.0000       1.385593        37.7039 
 298   0.0000       1.401688        38.1419 
 299   0.0000       1.423103        38.7246 
 300   0.0000       1.429649        38.9027 
 301   0.0000       1.431905        38.9641 
 302   0.0000       1.432965        38.9929 
 303   0.0000       1.436378        39.0858 
 304   0.0000       1.447944        39.4006 
 305   0.0000       1.451290        39.4916 
 306   0.0000       1.459329        39.7104 
 307   0.0000       1.461192        39.7611 
 308   0.0000       1.476457        40.1764 
 309   0.0000       1.500155        40.8213 
 310   0.0000       1.505063        40.9549 
 311   0.0000       1.512217        41.1495 
 312   0.0000       1.519099        41.3368 
 313   0.0000       1.521209        41.3942 
 314   0.0000       1.528368        41.5890 
 315   0.0000       1.536340        41.8059 
 316   0.0000       1.548984        42.1500 
 317   0.0000       1.552829        42.2546 
 318   0.0000       1.571570        42.7646 
 319   0.0000       1.584819        43.1251 
 320   0.0000       1.605411        43.6854 
 321   0.0000       1.605956        43.7003 
 322   0.0000       1.607393        43.7394 
 323   0.0000       1.615337        43.9556 
 324   0.0000       1.618425        44.0396 
 325   0.0000       1.619138        44.0590 
 326   0.0000       1.624369        44.2013 
 327   0.0000       1.651109        44.9290 
 328   0.0000       1.652373        44.9634 
 329   0.0000       1.664978        45.3063 
 330   0.0000       1.671273        45.4777 
 331   0.0000       1.683927        45.8220 
 332   0.0000       1.698193        46.2102 
 333   0.0000       1.699902        46.2567 
 334   0.0000       1.709783        46.5256 
 335   0.0000       1.717924        46.7471 
 336   0.0000       1.723827        46.9077 
 337   0.0000       1.747342        47.5476 
 338   0.0000       1.759110        47.8678 
 339   0.0000       1.762434        47.9583 
 340   0.0000       1.800519        48.9946 
 341   0.0000       1.806092        49.1463 
 342   0.0000       1.828399        49.7533 
 343   0.0000       1.846959        50.2583 
 344   0.0000       1.855990        50.5041 
 345   0.0000       1.874988        51.0210 
 346   0.0000       1.875189        51.0265 
 347   0.0000       1.894639        51.5557 
 348   0.0000       1.911852        52.0241 
 349   0.0000       1.912351        52.0377 
 350   0.0000       1.934154        52.6310 
 351   0.0000       1.940321        52.7988 
 352   0.0000       1.947149        52.9846 
 353   0.0000       1.955197        53.2036 
 354   0.0000       1.975824        53.7649 
 355   0.0000       1.980392        53.8892 
 356   0.0000       1.985987        54.0414 
 357   0.0000       1.994530        54.2739 
 358   0.0000       2.025861        55.1265 
 359   0.0000       2.035325        55.3840 
 360   0.0000       2.036658        55.4203 
 361   0.0000       2.041826        55.5609 
 362   0.0000       2.052373        55.8479 
 363   0.0000       2.054546        55.9070 
 364   0.0000       2.065984        56.2183 
 365   0.0000       2.067099        56.2486 
 366   0.0000       2.071324        56.3636 
 367   0.0000       2.083111        56.6843 
 368   0.0000       2.095993        57.0349 
 369   0.0000       2.108737        57.3816 
 370   0.0000       2.115065        57.5539 
 371   0.0000       2.117502        57.6202 
 372   0.0000       2.135752        58.1168 
 373   0.0000       2.144958        58.3673 
 374   0.0000       2.151997        58.5588 
 375   0.0000       2.152667        58.5770 
 376   0.0000       2.160448        58.7888 
 377   0.0000       2.162492        58.8444 
 378   0.0000       2.171319        59.0846 
 379   0.0000       2.186158        59.4884 
 380   0.0000       2.187748        59.5317 
 381   0.0000       2.208433        60.0945 
 382   0.0000       2.209401        60.1209 
 383   0.0000       2.222699        60.4827 
 384   0.0000       2.235142        60.8213 
 385   0.0000       2.248734        61.1912 
 386   0.0000       2.262744        61.5724 
 387   0.0000       2.266827        61.6835 
 388   0.0000       2.270534        61.7844 
 389   0.0000       2.292637        62.3858 
 390   0.0000       2.294547        62.4378 
 391   0.0000       2.300125        62.5896 
 392   0.0000       2.328678        63.3666 
 393   0.0000       2.331395        63.4405 
 394   0.0000       2.350606        63.9632 
 395   0.0000       2.358205        64.1700 
 396   0.0000       2.363580        64.3163 
 397   0.0000       2.380341        64.7724 
 398   0.0000       2.396694        65.2173 
 399   0.0000       2.417346        65.7793 
 400   0.0000       2.421228        65.8850 
 401   0.0000       2.428836        66.0920 
 402   0.0000       2.450461        66.6804 
 403   0.0000       2.462510        67.0083 
 404   0.0000       2.463592        67.0377 
 405   0.0000       2.473188        67.2989 
 406   0.0000       2.485617        67.6371 
 407   0.0000       2.508624        68.2631 
 408   0.0000       2.528474        68.8033 
 409   0.0000       2.543342        69.2079 
 410   0.0000       2.545092        69.2555 
 411   0.0000       2.546533        69.2947 
 412   0.0000       2.549809        69.3838 
 413   0.0000       2.551602        69.4326 
 414   0.0000       2.562008        69.7158 
 415   0.0000       2.575080        70.0715 
 416   0.0000       2.595662        70.6316 
 417   0.0000       2.602704        70.8232 
 418   0.0000       2.616297        71.1931 
 419   0.0000       2.622471        71.3611 
 420   0.0000       2.638599        71.7999 
 421   0.0000       2.641298        71.8734 
 422   0.0000       2.642199        71.8979 
 423   0.0000       2.660529        72.3967 
 424   0.0000       2.666301        72.5537 
 425   0.0000       2.678159        72.8764 
 426   0.0000       2.682013        72.9813 
 427   0.0000       2.683219        73.0141 
 428   0.0000       2.701007        73.4981 
 429   0.0000       2.705023        73.6074 
 430   0.0000       2.711369        73.7801 
 431   0.0000       2.712673        73.8156 
 432   0.0000       2.726808        74.2002 
 433   0.0000       2.730892        74.3114 
 434   0.0000       2.747502        74.7633 
 435   0.0000       2.753805        74.9348 
 436   0.0000       2.763425        75.1966 
 437   0.0000       2.770441        75.3875 
 438   0.0000       2.777790        75.5875 
 439   0.0000       2.783702        75.7484 
 440   0.0000       2.788531        75.8798 
 441   0.0000       2.793521        76.0156 
 442   0.0000       2.813301        76.5538 
 443   0.0000       2.815420        76.6115 
 444   0.0000       2.829733        77.0009 
 445   0.0000       2.832910        77.0874 
 446   0.0000       2.852986        77.6337 
 447   0.0000       2.853157        77.6383 
 448   0.0000       2.860427        77.8362 
 449   0.0000       2.865336        77.9698 
 450   0.0000       2.868049        78.0436 
 451   0.0000       2.879072        78.3435 
 452   0.0000       2.884458        78.4901 
 453   0.0000       2.892019        78.6958 
 454   0.0000       2.892085        78.6976 
 455   0.0000       2.906166        79.0808 
 456   0.0000       2.906793        79.0978 
 457   0.0000       2.921698        79.5034 
 458   0.0000       2.926255        79.6275 
 459   0.0000       2.928621        79.6918 
 460   0.0000       2.935441        79.8774 
 461   0.0000       2.937030        79.9206 
 462   0.0000       2.944813        80.1324 
 463   0.0000       2.965310        80.6902 
 464   0.0000       2.969883        80.8146 
 465   0.0000       2.971514        80.8590 
 466   0.0000       2.976585        80.9970 
 467   0.0000       2.981470        81.1299 
 468   0.0000       2.994090        81.4733 
 469   0.0000       2.995940        81.5237 
 470   0.0000       2.998769        81.6007 
 471   0.0000       3.013272        81.9953 
 472   0.0000       3.014189        82.0203 
 473   0.0000       3.015897        82.0667 
 474   0.0000       3.017062        82.0984 
 475   0.0000       3.030530        82.4649 
 476   0.0000       3.039063        82.6971 
 477   0.0000       3.040731        82.7425 
 478   0.0000       3.057247        83.1919 
 479   0.0000       3.061606        83.3105 
 480   0.0000       3.063641        83.3659 
 481   0.0000       3.079498        83.7974 
 482   0.0000       3.090604        84.0996 
 483   0.0000       3.094988        84.2189 
 484   0.0000       3.098443        84.3129 
 485   0.0000       3.109297        84.6083 
 486   0.0000       3.112768        84.7027 
 487   0.0000       3.117657        84.8358 
 488   0.0000       3.122481        84.9670 
 489   0.0000       3.127667        85.1081 
 490   0.0000       3.134352        85.2901 
 491   0.0000       3.139441        85.4285 
 492   0.0000       3.152772        85.7913 
 493   0.0000       3.158906        85.9582 
 494   0.0000       3.161195        86.0205 
 495   0.0000       3.166133        86.1549 
 496   0.0000       3.167899        86.2029 
 497   0.0000       3.175231        86.4024 
 498   0.0000       3.177737        86.4706 
 499   0.0000       3.189485        86.7903 
 500   0.0000       3.191797        86.8532 
 501   0.0000       3.196834        86.9903 
 502   0.0000       3.198745        87.0423 
 503   0.0000       3.222144        87.6790 
 504   0.0000       3.226586        87.7999 
 505   0.0000       3.227826        87.8336 
 506   0.0000       3.229401        87.8765 
 507   0.0000       3.235172        88.0335 
 508   0.0000       3.250180        88.4419 
 509   0.0000       3.260932        88.7345 
 510   0.0000       3.266576        88.8880 
 511   0.0000       3.271924        89.0336 
 512   0.0000       3.281366        89.2905 
 513   0.0000       3.289585        89.5142 
 514   0.0000       3.290764        89.5462 
 515   0.0000       3.298864        89.7666 
 516   0.0000       3.309526        90.0568 
 517   0.0000       3.322158        90.4005 
 518   0.0000       3.328132        90.5631 
 519   0.0000       3.335681        90.7685 
 520   0.0000       3.352707        91.2318 
 521   0.0000       3.367537        91.6353 
 522   0.0000       3.372696        91.7757 
 523   0.0000       3.373226        91.7901 
 524   0.0000       3.384330        92.0923 
 525   0.0000       3.385499        92.1241 
 526   0.0000       3.389043        92.2206 
 527   0.0000       3.406167        92.6865 
 528   0.0000       3.410682        92.8094 
 529   0.0000       3.412839        92.8681 
 530   0.0000       3.416828        92.9766 
 531   0.0000       3.430505        93.3488 
 532   0.0000       3.434280        93.4515 
 533   0.0000       3.440893        93.6315 
 534   0.0000       3.445115        93.7463 
 535   0.0000       3.458895        94.1213 
 536   0.0000       3.475707        94.5788 
 537   0.0000       3.478612        94.6578 
 538   0.0000       3.486611        94.8755 
 539   0.0000       3.493711        95.0687 
 540   0.0000       3.501949        95.2929 
 541   0.0000       3.511115        95.5423 
 542   0.0000       3.513318        95.6022 
 543   0.0000       3.517195        95.7078 
 544   0.0000       3.527352        95.9841 
 545   0.0000       3.536372        96.2296 
 546   0.0000       3.555680        96.7550 
 547   0.0000       3.556117        96.7669 
 548   0.0000       3.570913        97.1695 
 549   0.0000       3.578797        97.3840 
 550   0.0000       3.581546        97.4588 
 551   0.0000       3.595905        97.8496 
 552   0.0000       3.598884        97.9306 
 553   0.0000       3.602369        98.0255 
 554   0.0000       3.634828        98.9087 
 555   0.0000       3.643920        99.1561 
 556   0.0000       3.659193        99.5717 
 557   0.0000       3.660120        99.5969 
 558   0.0000       3.675462       100.0144 
 559   0.0000       3.676271       100.0364 
 560   0.0000       3.688291       100.3635 
 561   0.0000       3.718499       101.1855 
 562   0.0000       3.727700       101.4359 
 563   0.0000       3.729234       101.4776 
 564   0.0000       3.737999       101.7161 
 565   0.0000       3.748440       102.0002 
 566   0.0000       3.760569       102.3303 
 567   0.0000       3.767133       102.5089 
 568   0.0000       3.769783       102.5810 
 569   0.0000       3.794884       103.2641 
 570   0.0000       3.818242       103.8997 
 571   0.0000       3.821524       103.9890 
 572   0.0000       3.852278       104.8258 
 573   0.0000       3.862773       105.1114 
 574   0.0000       3.891198       105.8849 
 575   0.0000       3.897384       106.0532 
 576   0.0000       3.907113       106.3179 
 577   0.0000       3.914657       106.5232 
 578   0.0000       3.916950       106.5856 
 579   0.0000       3.939459       107.1981 
 580   0.0000       3.945880       107.3728 
 581   0.0000       3.978686       108.2655 
 582   0.0000       3.995357       108.7192 
 583   0.0000       3.998031       108.7919 
 584   0.0000       4.014724       109.2462 
 585   0.0000       4.035497       109.8115 
 586   0.0000       4.039115       109.9099 
 587   0.0000       4.039256       109.9137 
 588   0.0000       4.040160       109.9383 
 589   0.0000       4.041105       109.9641 
 590   0.0000       4.044484       110.0560 
 591   0.0000       4.047179       110.1293 
 592   0.0000       4.048536       110.1663 
 593   0.0000       4.058278       110.4313 
 594   0.0000       4.074221       110.8652 
 595   0.0000       4.082084       111.0792 
 596   0.0000       4.088173       111.2448 
 597   0.0000       4.103158       111.6526 
 598   0.0000       4.123801       112.2143 
 599   0.0000       4.129378       112.3661 
 600   0.0000       4.130901       112.4075 
 601   0.0000       4.146595       112.8346 
 602   0.0000       4.165518       113.3495 
 603   0.0000       4.173270       113.5604 
 604   0.0000       4.174217       113.5862 
 605   0.0000       4.175969       113.6339 
 606   0.0000       4.196794       114.2006 
 607   0.0000       4.203653       114.3872 
 608   0.0000       4.205558       114.4391 
 609   0.0000       4.211494       114.6006 
 610   0.0000       4.216076       114.7253 
 611   0.0000       4.221932       114.8846 
 612   0.0000       4.244954       115.5111 
 613   0.0000       4.257447       115.8510 
 614   0.0000       4.259850       115.9164 
 615   0.0000       4.274119       116.3047 
 616   0.0000       4.287596       116.6714 
 617   0.0000       4.301394       117.0469 
 618   0.0000       4.320460       117.5657 
 619   0.0000       4.329088       117.8005 
 620   0.0000       4.345509       118.2473 
 621   0.0000       4.361335       118.6780 
 622   0.0000       4.377307       119.1126 
 623   0.0000       4.387576       119.3920 
 624   0.0000       4.423684       120.3746 
 625   0.0000       4.440483       120.8317 
 626   0.0000       4.444711       120.9467 
 627   0.0000       4.477214       121.8312 
 628   0.0000       4.486662       122.0883 
 629   0.0000       4.507190       122.6469 
 630   0.0000       4.513377       122.8152 
 631   0.0000       4.534949       123.4022 
 632   0.0000       4.543969       123.6477 
 633   0.0000       4.552187       123.8713 
 634   0.0000       4.584885       124.7611 
 635   0.0000       4.608212       125.3958 
 636   0.0000       4.614080       125.5555 
 637   0.0000       4.617429       125.6466 
 638   0.0000       4.618031       125.6630 
 639   0.0000       4.631399       126.0268 
 640   0.0000       4.643206       126.3481 
 641   0.0000       4.656354       126.7058 
 642   0.0000       4.670542       127.0919 
 643   0.0000       4.674567       127.2014 
 644   0.0000       4.689215       127.6000 
 645   0.0000       4.713219       128.2532 
 646   0.0000       4.720909       128.4625 
 647   0.0000       4.733193       128.7967 
 648   0.0000       4.752206       129.3141 
 649   0.0000       4.754207       129.3685 
 650   0.0000       4.757557       129.4597 
 651   0.0000       4.796966       130.5321 
 652   0.0000       4.813230       130.9746 
 653   0.0000       4.821833       131.2088 
 654   0.0000       4.846954       131.8923 
 655   0.0000       4.848833       131.9435 
 656   0.0000       4.858138       132.1966 
 657   0.0000       4.859282       132.2278 
 658   0.0000       4.922661       133.9524 
 659   0.0000       4.934751       134.2814 
 660   0.0000       4.986679       135.6944 
 661   0.0000       5.003205       136.1441 
 662   0.0000       5.020792       136.6227 
 663   0.0000       5.042860       137.2232 
 664   0.0000       5.051330       137.4537 
 665   0.0000       5.158184       140.3613 
 666   0.0000       5.180376       140.9652 
 667   0.0000       5.201573       141.5420 
 668   0.0000       5.203043       141.5820 
 669   0.0000       5.204634       141.6253 
 670   0.0000       5.211951       141.8244 
 671   0.0000       5.233536       142.4117 
 672   0.0000       5.236594       142.4950 
 673   0.0000       5.261347       143.1685 
 674   0.0000       5.297572       144.1543 
 675   0.0000       5.315181       144.6334 
 676   0.0000       5.344935       145.4431 
 677   0.0000       5.362162       145.9118 
 678   0.0000       5.371245       146.1590 
 679   0.0000       5.380738       146.4173 
 680   0.0000       5.417442       147.4161 
 681   0.0000       5.447184       148.2254 
 682   0.0000       5.480850       149.1415 
 683   0.0000       5.489082       149.3655 
 684   0.0000       5.528973       150.4510 
 685   0.0000       5.553253       151.1117 
 686   0.0000       5.559738       151.2882 
 687   0.0000       5.665554       154.1676 
 688   0.0000       5.672359       154.3527 
 689   0.0000       5.689432       154.8173 
 690   0.0000       5.714239       155.4923 
 691   0.0000       5.726505       155.8261 
 692   0.0000       5.728203       155.8723 
 693   0.0000       5.730371       155.9313 
 694   0.0000       5.749387       156.4488 
 695   0.0000       5.763771       156.8402 
 696   0.0000       5.770113       157.0127 
 697   0.0000       5.771840       157.0597 
 698   0.0000       5.795096       157.6926 
 699   0.0000       5.813725       158.1995 
 700   0.0000       5.856705       159.3690 
 701   0.0000       6.005343       163.4137 
 702   0.0000       6.097420       165.9192 
 703   0.0000       6.130649       166.8234 
 704   0.0000       6.216668       169.1641 
 705   0.0000       6.234285       169.6435 
 706   0.0000       6.238750       169.7650 
 707   0.0000       6.257973       170.2881 
 708   0.0000       6.902322       187.8217 
 709   0.0000       6.903266       187.8474 
 710   0.0000       6.912672       188.1034 
 711   0.0000       6.914208       188.1452 
 712   0.0000       6.919470       188.2884 
 713   0.0000       6.921475       188.3429 
 714   0.0000       6.922054       188.3587 
 715   0.0000       6.923105       188.3873 
 716   0.0000       6.932740       188.6494 
 717   0.0000       6.934521       188.6979 
 718   0.0000       6.937106       188.7683 
 719   0.0000       6.941908       188.8989 
 720   0.0000       6.979582       189.9241 
 721   0.0000       6.982151       189.9940 
 722   0.0000       6.997272       190.4054 
 723   0.0000       7.001443       190.5190 
 724   0.0000       7.048360       191.7956 
 725   0.0000       7.055425       191.9879 
 726   0.0000       7.058575       192.0736 
 727   0.0000       7.062778       192.1880 
 728   0.0000       7.090273       192.9361 
 729   0.0000       7.107776       193.4124 
 730   0.0000       7.185650       195.5315 
 731   0.0000       7.198138       195.8713 
 732   0.0000       7.200956       195.9480 
 733   0.0000       7.204762       196.0515 
 734   0.0000       7.231999       196.7927 
 735   0.0000       7.236946       196.9273 
 736   0.0000       7.311024       198.9431 
 737   0.0000       7.324366       199.3061 
 738   0.0000       7.346273       199.9023 
 739   0.0000       7.365214       200.4177 
 740   0.0000       7.385156       200.9603 
 741   0.0000       7.392137       201.1503 
 742   0.0000       7.429491       202.1667 
 743   0.0000       7.439647       202.4431 
 744   0.0000       7.479865       203.5375 
 745   0.0000       7.492434       203.8795 
 746   0.0000       7.581955       206.3155 
 747   0.0000       7.587361       206.4626 
 748   0.0000       7.742897       210.6949 
 749   0.0000       7.864372       214.0004 
 750   0.0000       8.357369       227.4156 
 751   0.0000       8.362481       227.5547 
 752   0.0000       8.366704       227.6696 
 753   0.0000       8.371509       227.8003 
 754   0.0000       8.410620       228.8646 
 755   0.0000       8.421666       229.1652 
 756   0.0000       8.554130       232.7697 
 757   0.0000       8.568945       233.1729 
 758   0.0000       8.578895       233.4436 
 759   0.0000       8.589045       233.7198 
 760   0.0000       8.668798       235.8900 
 761   0.0000       8.672626       235.9941 
 762   0.0000       8.744797       237.9580 
 763   0.0000       8.747992       238.0450 
 764   0.0000       8.767361       238.5720 
 765   0.0000       8.776951       238.8330 
 766   0.0000       8.832127       240.3344 
 767   0.0000       8.839529       240.5358 
 768   0.0000       8.910138       242.4572 
 769   0.0000       8.921358       242.7625 
 770   0.0000       8.996535       244.8082 
 771   0.0000       9.041939       246.0437 
 772   0.0000       9.051659       246.3082 
 773   0.0000       9.058174       246.4854 
 774   0.0000       9.063460       246.6293 
 775   0.0000       9.067732       246.7455 
 776   0.0000       9.114813       248.0267 
 777   0.0000       9.121246       248.2017 
 778   0.0000       9.236583       251.3402 
 779   0.0000       9.256063       251.8703 
[...]
      f+3     :     0.016831
      f-3     :     0.017079
  4 C s       :     2.689490  s :     2.689490
      pz      :     0.906084  p :     2.864175
      px      :     0.995058
      py      :     0.963034
      dz2     :     0.031390  d :     0.484960
      dxz     :     0.070964
      dyz     :     0.055476
      dx2y2   :     0.163216
      dxy     :     0.163914
      f0      :     0.004386  f :     0.053666
      f+1     :     0.004983
      f-1     :     0.004509
      f+2     :     0.005295
      f-2     :     0.005443
      f+3     :     0.017412
      f-3     :     0.011638
  5 C s       :     2.690261  s :     2.690261
      pz      :     0.801173  p :     2.768699
      px      :     0.990611
      py      :     0.976915
      dz2     :     0.034163  d :     0.498001
      dxz     :     0.095022
      dyz     :     0.077594
      dx2y2   :     0.144533
      dxy     :     0.146688
      f0      :     0.004611  f :     0.055103
      f+1     :     0.004587
      f-1     :     0.004292
      f+2     :     0.007818
      f-2     :     0.006682
      f+3     :     0.016169
      f-3     :     0.010944
  6 C s       :     2.701449  s :     2.701449
      pz      :     0.919426  p :     2.712080
      px      :     0.889358
      py      :     0.903296
      dz2     :     0.051049  d :     0.677420
      dxz     :     0.124323
      dyz     :     0.078514
      dx2y2   :     0.217339
      dxy     :     0.206196
      f0      :     0.009110  f :     0.115305
      f+1     :     0.009904
      f-1     :     0.007898
      f+2     :     0.006168
      f-2     :     0.020047
      f+3     :     0.036429
      f-3     :     0.025749
  7 C s       :     2.702731  s :     2.702731
      pz      :     0.849998  p :     2.640512
      px      :     1.026586
      py      :     0.763927
      dz2     :     0.049631  d :     0.692689
      dxz     :     0.084364
      dyz     :     0.120329
      dx2y2   :     0.215119
      dxy     :     0.223245
      f0      :     0.008910  f :     0.117221
      f+1     :     0.005274
      f-1     :     0.012107
      f+2     :     0.019810
      f-2     :     0.006491
      f+3     :     0.038461
      f-3     :     0.026168
  8 C s       :     2.706155  s :     2.706155
      pz      :     0.871658  p :     2.675766
      px      :     1.038795
      py      :     0.765312
      dz2     :     0.050810  d :     0.692310
      dxz     :     0.091700
      dyz     :     0.126404
      dx2y2   :     0.206410
      dxy     :     0.216987
      f0      :     0.009089  f :     0.117339
      f+1     :     0.005383
      f-1     :     0.012316
      f+2     :     0.020526
      f-2     :     0.007521
      f+3     :     0.037942
      f-3     :     0.024561
  9 C s       :     2.677704  s :     2.677704
      pz      :     0.876947  p :     2.821603
      px      :     0.989789
      py      :     0.954868
      dz2     :     0.034290  d :     0.483939
      dxz     :     0.088029
      dyz     :     0.072184
      dx2y2   :     0.141789
      dxy     :     0.147647
      f0      :     0.004714  f :     0.056183
      f+1     :     0.004925
      f-1     :     0.004254
      f+2     :     0.007652
      f-2     :     0.006510
      f+3     :     0.016721
      f-3     :     0.011407
 10 C s       :     2.702719  s :     2.702719
      pz      :     0.849981  p :     2.640518
      px      :     1.026599
      py      :     0.763938
      dz2     :     0.049633  d :     0.692715
      dxz     :     0.084355
      dyz     :     0.120343
      dx2y2   :     0.215135
      dxy     :     0.223250
      f0      :     0.008911  f :     0.117230
      f+1     :     0.005273
      f-1     :     0.012108
      f+2     :     0.019815
      f-2     :     0.006489
      f+3     :     0.038467
      f-3     :     0.026166
 11 C s       :     2.701459  s :     2.701459
      pz      :     0.919432  p :     2.712068
      px      :     0.889351
      py      :     0.903285
      dz2     :     0.051048  d :     0.677398
      dxz     :     0.124328
      dyz     :     0.078502
      dx2y2   :     0.217339
      dxy     :     0.206182
      f0      :     0.009110  f :     0.115300
      f+1     :     0.009905
      f-1     :     0.007897
      f+2     :     0.006168
      f-2     :     0.020046
      f+3     :     0.036428
      f-3     :     0.025746
 12 C s       :     2.690269  s :     2.690269
      pz      :     0.801173  p :     2.768683
      px      :     0.990620
      py      :     0.976890
      dz2     :     0.034162  d :     0.497974
      dxz     :     0.095024
      dyz     :     0.077578
      dx2y2   :     0.144533
      dxy     :     0.146677
      f0      :     0.004611  f :     0.055100
      f+1     :     0.004588
      f-1     :     0.004291
      f+2     :     0.007819
      f-2     :     0.006680
      f+3     :     0.016167
      f-3     :     0.010943
 13 C s       :     2.689490  s :     2.689490
      pz      :     0.906077  p :     2.864175
      px      :     0.995071
      py      :     0.963026
      dz2     :     0.031390  d :     0.484965
      dxz     :     0.070966
      dyz     :     0.055475
      dx2y2   :     0.163218
      dxy     :     0.163916
      f0      :     0.004386  f :     0.053666
      f+1     :     0.004983
      f-1     :     0.004509
      f+2     :     0.005295
      f-2     :     0.005443
      f+3     :     0.017409
      f-3     :     0.011641
 14 C s       :     2.800591  s :     2.800591
      pz      :     0.856942  p :     2.845995
      px      :     0.861631
      py      :     1.127422
      dz2     :     0.041247  d :     0.428943
      dxz     :     0.011374
      dyz     :     0.128938
      dx2y2   :     0.122905
      dxy     :     0.124480
      f0      :     0.006846  f :     0.062769
      f+1     :     0.001771
      f-1     :     0.008901
      f+2     :     0.008139
      f-2     :     0.003203
      f+3     :     0.016829
      f-3     :     0.017080
 15 C s       :     2.800113  s :     2.800113
      pz      :     0.856264  p :     2.845850
      px      :     1.070107
      py      :     0.919479
      dz2     :     0.041132  d :     0.426411
      dxz     :     0.104395
      dyz     :     0.035225
      dx2y2   :     0.124405
      dxy     :     0.121254
      f0      :     0.006834  f :     0.062642
      f+1     :     0.007369
      f-1     :     0.003337
      f+2     :     0.002861
      f-2     :     0.008456
      f+3     :     0.017321
      f-3     :     0.016464
 16 N s       :     3.298370  s :     3.298370
      pz      :     1.006540  p :     3.497460
      px      :     1.042441
      py      :     1.448479
      dz2     :     0.011369  d :     0.109029
      dxz     :     0.002690
      dyz     :     0.029072
      dx2y2   :     0.033047
      dxy     :     0.032850
      f0      :     0.001764  f :     0.016718
      f+1     :     0.000505
      f-1     :     0.002484
      f+2     :     0.002026
      f-2     :     0.000914
      f+3     :     0.004523
      f-3     :     0.004502
 17 N s       :     3.298333  s :     3.298333
      pz      :     1.006857  p :     3.495989
      px      :     1.370362
      py      :     1.118770
      dz2     :     0.011392  d :     0.109081
      dxz     :     0.024177
      dyz     :     0.007522
      dx2y2   :     0.032799
      dxy     :     0.033191
      f0      :     0.001757  f :     0.016731
      f+1     :     0.002141
      f-1     :     0.000861
      f+2     :     0.000815
      f-2     :     0.002112
      f+3     :     0.004542
      f-3     :     0.004503
 18 F s       :     3.564343  s :     3.564343
      pz      :     1.786275  p :     5.114823
      px      :     1.799759
      py      :     1.528788
      dz2     :     0.004233  d :     0.034111
      dxz     :     0.000377
      dyz     :     0.008661
      dx2y2   :     0.012359
      dxy     :     0.008481
      f0      :     0.000172  f :     0.001671
      f+1     :     0.000038
      f-1     :     0.000261
      f+2     :     0.000247
      f-2     :     0.000043
      f+3     :     0.000452
      f-3     :     0.000458
 19 F s       :     3.570247  s :     3.570247
      pz      :     1.792561  p :     5.132018
      px      :     1.818541
      py      :     1.520917
      dz2     :     0.004048  d :     0.033698
      dxz     :     0.000180
      dyz     :     0.008977
      dx2y2   :     0.012314
      dxy     :     0.008179
      f0      :     0.000175  f :     0.001665
      f+1     :     0.000031
      f-1     :     0.000263
      f+2     :     0.000275
      f-2     :     0.000027
      f+3     :     0.000445
      f-3     :     0.000451
 20 F s       :     3.570667  s :     3.570667
      pz      :     1.805205  p :     5.131788
      px      :     1.627315
      py      :     1.699268
      dz2     :     0.004021  d :     0.033548
      dxz     :     0.005991
      dyz     :     0.003648
      dx2y2   :     0.007835
      dxy     :     0.012052
      f0      :     0.000183  f :     0.001647
      f+1     :     0.000166
      f-1     :     0.000121
      f+2     :     0.000025
      f-2     :     0.000291
      f+3     :     0.000433
      f-3     :     0.000428
 21 F s       :     3.564352  s :     3.564352
      pz      :     1.786283  p :     5.114828
      px      :     1.799735
      py      :     1.528810
      dz2     :     0.004233  d :     0.034110
      dxz     :     0.000378
      dyz     :     0.008660
      dx2y2   :     0.012358
      dxy     :     0.008481
      f0      :     0.000172  f :     0.001671
      f+1     :     0.000038
      f-1     :     0.000261
      f+2     :     0.000247
      f-2     :     0.000044
      f+3     :     0.000451
      f-3     :     0.000458
 22 F s       :     3.570666  s :     3.570666
      pz      :     1.805203  p :     5.131776
      px      :     1.627294
      py      :     1.699279
      dz2     :     0.004022  d :     0.033548
      dxz     :     0.005992
      dyz     :     0.003648
      dx2y2   :     0.007835
      dxy     :     0.012052
      f0      :     0.000183  f :     0.001647
      f+1     :     0.000166
      f-1     :     0.000121
      f+2     :     0.000025
      f-2     :     0.000290
      f+3     :     0.000433
      f-3     :     0.000428
 23 C s       :     2.677712  s :     2.677712
      pz      :     0.876950  p :     2.821598
      px      :     0.989780
      py      :     0.954869
      dz2     :     0.034288  d :     0.483923
      dxz     :     0.088029
      dyz     :     0.072181
      dx2y2   :     0.141784
      dxy     :     0.147640
      f0      :     0.004713  f :     0.056179
      f+1     :     0.004925
      f-1     :     0.004253
      f+2     :     0.007652
      f-2     :     0.006510
      f+3     :     0.016719
      f-3     :     0.011406
 24 C s       :     2.706157  s :     2.706157
      pz      :     0.871669  p :     2.675774
      px      :     1.038792
      py      :     0.765313
      dz2     :     0.050810  d :     0.692315
      dxz     :     0.091704
      dyz     :     0.126401
      dx2y2   :     0.206405
      dxy     :     0.216995
      f0      :     0.009089  f :     0.117338
      f+1     :     0.005384
      f-1     :     0.012316
      f+2     :     0.020524
      f-2     :     0.007522
      f+3     :     0.037939
      f-3     :     0.024564
 25 F s       :     3.570244  s :     3.570244
      pz      :     1.792561  p :     5.132020
      px      :     1.818525
      py      :     1.520934
      dz2     :     0.004048  d :     0.033698
      dxz     :     0.000181
      dyz     :     0.008977
      dx2y2   :     0.012313
      dxy     :     0.008180
      f0      :     0.000175  f :     0.001665
      f+1     :     0.000031
      f-1     :     0.000263
      f+2     :     0.000275
      f-2     :     0.000027
      f+3     :     0.000445
      f-3     :     0.000451


                      *****************************
                      * MAYER POPULATION ANALYSIS *
                      *****************************

  NA   - Mulliken gross atomic population
  ZA   - Total nuclear charge
  QA   - Mulliken gross atomic charge
  VA   - Mayer's total valence
  BVA  - Mayer's bonded valence
  FA   - Mayer's free valence

  ATOM       NA         ZA         QA         VA         BVA        FA
  0 N      7.0381     7.0000    -0.0381     3.0976     3.0976    -0.0000
  1 C      6.2247     6.0000    -0.2247     4.0496     4.0496    -0.0000
  2 N      7.0411     7.0000    -0.0411     3.1003     3.1003    -0.0000
  3 C      6.2269     6.0000    -0.2269     4.0509     4.0509     0.0000
  4 C      5.5868     6.0000     0.4132     3.6348     3.6348     0.0000
  5 C      6.1766     6.0000    -0.1766     4.0994     4.0994    -0.0000
  6 C      5.7483     6.0000     0.2517     3.8498     3.8498     0.0000
  7 C      5.6724     6.0000     0.3276     3.8600     3.8600    -0.0000
  8 C      5.7951     6.0000     0.2049     4.0812     4.0812    -0.0000
  9 C      6.0115     6.0000    -0.0115     3.6744     3.6744     0.0000
 10 C      5.6725     6.0000     0.3275     3.8601     3.8601     0.0000
 11 C      5.7483     6.0000     0.2517     3.8498     3.8498    -0.0000
 12 C      6.1765     6.0000    -0.1765     4.0993     4.0993     0.0000
 13 C      5.5867     6.0000     0.4133     3.6347     3.6347    -0.0000
 14 C      6.2269     6.0000    -0.2269     4.0509     4.0509    -0.0000
 15 C      6.2248     6.0000    -0.2248     4.0496     4.0496    -0.0000
 16 N      7.0411     7.0000    -0.0411     3.1003     3.1003     0.0000
 17 N      7.0381     7.0000    -0.0381     3.0976     3.0976     0.0000
 18 F      9.1568     9.0000    -0.1568     1.1680     1.1680     0.0000
 19 F      9.1550     9.0000    -0.1550     1.1613     1.1613    -0.0000
 20 F      9.1667     9.0000    -0.1667     1.1442     1.1442     0.0000
 21 F      9.1568     9.0000    -0.1568     1.1680     1.1680    -0.0000
 22 F      9.1667     9.0000    -0.1667     1.1442     1.1442    -0.0000
 23 C      6.0115     6.0000    -0.0115     3.6743     3.6743     0.0000
 24 C      5.7951     6.0000     0.2049     4.0812     4.0812     0.0000
 25 F      9.1550     9.0000    -0.1550     1.1613     1.1613    -0.0000

  Mayer bond orders larger than 0.100000
B(  0-N ,  1-C ) :   2.9822 B(  1-C ,  4-C ) :   0.9577 B(  2-N ,  3-C ) :   2.9808 
B(  3-C ,  4-C ) :   0.9549 B(  4-C ,  5-C ) :   1.5578 B(  5-C ,  6-C ) :   1.0834 
B(  5-C ,  7-C ) :   1.0789 B(  6-C ,  8-C ) :   1.7139 B(  6-C , 20-F ) :   1.0168 
B(  7-C , 21-F ) :   1.0812 B(  7-C , 23-C ) :   1.6093 B(  8-C ,  9-C ) :   1.0725 
B(  8-C , 19-F ) :   1.1007 B(  9-C , 10-C ) :   1.6093 B(  9-C , 23-C ) :   1.0012 
B( 10-C , 12-C ) :   1.0789 B( 10-C , 18-F ) :   1.0812 B( 11-C , 12-C ) :   1.0834 
B( 11-C , 22-F ) :   1.0168 B( 11-C , 24-C ) :   1.7140 B( 12-C , 13-C ) :   1.5578 
B( 13-C , 14-C ) :   0.9548 B( 13-C , 15-C ) :   0.9577 B( 14-C , 16-N ) :   2.9808 
B( 15-C , 17-N ) :   2.9822 B( 23-C , 24-C ) :   1.0725 B( 24-C , 25-F ) :   1.1007 


-------
TIMINGS
-------

Total SCF time: 0 days 0 hours 17 min 18 sec 

Total time                  ....    1038.525 sec
Sum of individual times     ....    1037.404 sec  ( 99.9%)

Fock matrix formation       ....    1033.977 sec  ( 99.6%)
  XC integration            ....       5.245 sec  (  0.5% of F)
    Basis function eval.    ....       1.112 sec  ( 21.2% of XC)
    Density eval.           ....       1.395 sec  ( 26.6% of XC)
    XC-Functional eval.     ....       0.430 sec  (  8.2% of XC)
    XC-Potential eval.      ....       2.156 sec  ( 41.1% of XC)
Diagonalization             ....       0.199 sec  (  0.0%)
Density matrix formation    ....       0.058 sec  (  0.0%)
Population analysis         ....       0.124 sec  (  0.0%)
Initial guess               ....       0.229 sec  (  0.0%)
Orbital Transformation      ....       0.000 sec  (  0.0%)
Orbital Orthonormalization  ....       0.194 sec  (  0.0%)
DIIS solution               ....       0.053 sec  (  0.0%)
SOSCF solution              ....       0.814 sec  (  0.1%)
Grid generation             ....       1.950 sec  (  0.2%)


-------------------------------------------------------------------------------
                          DFT DISPERSION CORRECTION                            
                                                                               
                              DFTD3 V3.1  Rev 1                                
                              USING zero damping                               
-------------------------------------------------------------------------------
The omegaB97X-D3 functional is recognized. Fit by Chai et al.
Active option DFTDOPT                   ...         3   

molecular C6(AA) [au] = 13315.293846 


            DFT-D V3
 parameters
 s6 scaling factor         :     1.0000 
 rs6 scaling factor        :     1.2810 
 s8 scaling factor         :     1.0000 
 rs8 scaling factor        :     1.0940 
 Damping factor alpha6     :    14.0000 
 Damping factor alpha8     :    16.0000 
 ad hoc parameters k1-k3   :    16.0000     1.3333    -4.0000 

 Edisp/kcal,au: -7.749543538011  -0.012349682406 
 E6   /kcal   :  -3.299896956 
 E8   /kcal   :  -4.449646582 
 % E8         :  57.418176436 

-------------------------   ----------------
Dispersion correction           -0.012349682
-------------------------   ----------------


-------------------------   --------------------
FINAL SINGLE POINT ENERGY     -1427.732816362062
-------------------------   --------------------

                                *** OPTIMIZATION RUN DONE ***

                            ***************************************
                            *     ORCA property calculations      *
                            ***************************************

                                    ---------------------
                                    Active property flags
                                    ---------------------
   (+) Dipole Moment


------------------------------------------------------------------------------
                       ORCA ELECTRIC PROPERTIES CALCULATION
------------------------------------------------------------------------------

Dipole Moment Calculation                       ... on
Quadrupole Moment Calculation                   ... off
Polarizability Calculation                      ... off
GBWName                                         ... F6-TCNNQ.gbw
Electron density file                           ... F6-TCNNQ.scfp
The origin for moment calculation is the CENTER OF MASS  = (-22.616683,  2.015402 -0.023724)

-------------
DIPOLE MOMENT
-------------
                                X             Y             Z
Electronic contribution:      0.00038       0.00105      -0.00733
Nuclear contribution   :      0.00023      -0.00040       0.00445
                        -----------------------------------------
Total Dipole Moment    :      0.00062       0.00065      -0.00287
                        -----------------------------------------
Magnitude (a.u.)       :      0.00301
Magnitude (Debye)      :      0.00764



--------------------
Rotational spectrum 
--------------------
 
Rotational constants in cm-1:     0.013832     0.004300     0.003280 
Rotational constants in MHz :   414.662682   128.899615    98.332564 

 Dipole components along the rotational axes: 
x,y,z [a.u.] :    -0.000716     0.000538    -0.002870 
x,y,z [Debye]:    -0.001821     0.001367    -0.007296 

 

Timings for individual modules:

Sum of individual times         ...    25801.832 sec (= 430.031 min)
GTO integral calculation        ...       31.203 sec (=   0.520 min)   0.1 %
SCF iterations                  ...    17161.866 sec (= 286.031 min)  66.5 %
SCF Gradient evaluation         ...     8600.852 sec (= 143.348 min)  33.3 %
Geometry relaxation             ...        7.912 sec (=   0.132 min)   0.0 %
                             ****ORCA TERMINATED NORMALLY****
TOTAL RUN TIME: 0 days 7 hours 10 minutes 4 seconds 905 msec
