Warning: no access to tty (Bad file descriptor).
Thus no job control in this shell.

                                 *****************
                                 * O   R   C   A *
                                 *****************

           --- An Ab Initio, DFT and Semiempirical electronic structure package ---

                  #######################################################
                  #                        -***-                        #
                  #          Department of theory and spectroscopy      #
                  #               Directorship: Frank Neese             #
                  #        Max Planck Institute fuer Kohlenforschung    #
                  #                Kaiser Wilhelm Platz 1               #
                  #                 D-45470 Muelheim/Ruhr               #
                  #                      Germany                        #
                  #                                                     #
                  #                  All rights reserved                #
                  #                        -***-                        #
                  #######################################################


                         Program Version 4.2.1 -  RELEASE  -


 With contributions from (in alphabetic order):
   Daniel Aravena         : Magnetic Suceptibility
   Michael Atanasov       : Ab Initio Ligand Field Theory (pilot matlab implementation)
   Alexander A. Auer      : GIAO ZORA, VPT2
   Ute Becker             : Parallelization
   Giovanni Bistoni       : ED, misc. LED, open-shell LED, HFLD
   Martin Brehm           : Molecular dynamics
   Dmytro Bykov           : SCF Hessian
   Vijay G. Chilkuri      : MRCI spin determinant printing, contributions to CSF-ICE
   Dipayan Datta          : RHF DLPNO-CCSD density
   Achintya Kumar Dutta   : EOM-CC, STEOM-CC
   Dmitry Ganyushin       : Spin-Orbit,Spin-Spin,Magnetic field MRCI
   Miquel Garcia          : C-PCM Hessian, Gaussian charge scheme
   Yang Guo               : DLPNO-NEVPT2, CIM, IAO-localization
   Andreas Hansen         : Spin unrestricted coupled pair/coupled cluster methods
   Benjamin Helmich-Paris : CASSCF linear response (MC-RPA)
   Lee Huntington         : MR-EOM, pCC
   Robert Izsak           : Overlap fitted RIJCOSX, COSX-SCS-MP3, EOM
   Christian Kollmar      : KDIIS, OOCD, Brueckner-CCSD(T), CCSD density
   Simone Kossmann        : Meta GGA functionals, TD-DFT gradient, OOMP2, MP2 Hessian
   Martin Krupicka        : AUTO-CI
   Lucas Lang             : DCDCAS
   Dagmar Lenk            : GEPOL surface, SMD
   Dimitrios Liakos       : Extrapolation schemes; Compound Job, initial MDCI parallelization
   Dimitrios Manganas     : Further ROCIS development; embedding schemes
   Dimitrios Pantazis     : SARC Basis sets
   Taras Petrenko         : DFT Hessian,TD-DFT gradient, ASA, ECA, R-Raman, ABS, FL, XAS/XES, NRVS
   Peter Pinski           : DLPNO-MP2, DLPNO-MP2 Gradient
   Christoph Reimann      : Effective Core Potentials
   Marius Retegan         : Local ZFS, SOC
   Christoph Riplinger    : Optimizer, TS searches, QM/MM, DLPNO-CCSD(T), (RO)-DLPNO pert. Triples
   Tobias Risthaus        : Range-separated hybrids, TD-DFT gradient, RPA, STAB
   Michael Roemelt        : Original ROCIS implementation
   Masaaki Saitow         : Open-shell DLPNO-CCSD energy and density
   Barbara Sandhoefer     : DKH picture change effects
   Avijit Sen             : IP-ROCIS
   Kantharuban Sivalingam : CASSCF convergence, NEVPT2, FIC-MRCI
   Bernardo de Souza      : ESD, SOC TD-DFT
   Georgi Stoychev        : AutoAux, RI-MP2 NMR
   Willem Van den Heuvel  : Paramagnetic NMR
   Boris Wezisla          : Elementary symmetry handling
   Frank Wennmohs         : Technical directorship


 We gratefully acknowledge several colleagues who have allowed us to
 interface, adapt or use parts of their codes:
   Stefan Grimme, W. Hujo, H. Kruse,             : VdW corrections, initial TS optimization,
                  C. Bannwarth                     DFT functionals, gCP, sTDA/sTD-DF
   Ed Valeev, F. Pavosevic, A. Kumar             : LibInt (2-el integral package), F12 methods
   Garnet Chan, S. Sharma, J. Yang, R. Olivares  : DMRG
   Ulf Ekstrom                                   : XCFun DFT Library
   Mihaly Kallay                                 : mrcc  (arbitrary order and MRCC methods)
   Andreas Klamt, Michael Diedenhofen            : otool_cosmo (COSMO solvation model)
   Jiri Pittner, Ondrej Demel                    : Mk-CCSD
   Frank Weinhold                                : gennbo (NPA and NBO analysis)
   Christopher J. Cramer and Donald G. Truhlar   : smd solvation model
   Lars Goerigk                                  : TD-DFT with DH, B97 family of functionals
   V. Asgeirsson, H. Jonsson                     : NEB implementation
   FAccTs GmbH                                   : IRC, NEB, NEB-TS, Multilevel, MM, QM/MM, CI optimization
   S Lehtola, MJT Oliveira, MAL Marques          : LibXC Library


 Your calculation uses the libint2 library for the computation of 2-el integrals
 For citations please refer to: http://libint.valeyev.net

 Your ORCA version has been built with support for libXC version: 4.2.3
 For citations please refer to: https://tddft.org/programs/libxc/

 This ORCA versions uses:
   CBLAS   interface :  Fast vector & matrix operations
   LAPACKE interface :  Fast linear algebra routines
   SCALAPACK package :  Parallel linear algebra routines


Your calculation utilizes the atom-pairwise dispersion correction
with the zero-damping scheme (D30)
Cite in your paper:
S.Grimme, J.Antony, S.Ehrlich and H.Krieg, J.Chem.Phys., 132, (2010), 154104 
   

XCFun DFT library Copyright 2009-2010 Ulf Ekstrom and contributors.
See http://admol.org/xcfun for more information. This is free soft-
ware; see the source code for copying conditions. There is ABSOLUTELY
NO WARRANTY; not even for MERCHANTABILITY or FITNESS FOR A PARTICULAR
PURPOSE. For details see the documentation. Scientific users of this 
library should cite U. Ekstrom, L. Visscher, R. Bast, A. J. Thorvald-
sen and K. Ruud; J.Chem.Theor.Comp. 2010, DOI: 10.1021/ct100117s
XCFun Version 0.99 
----- Orbital basis set information -----
Your calculation utilizes the basis: def2-TZVP
   F. Weigend and R. Ahlrichs, Phys. Chem. Chem. Phys. 7, 3297 (2005).

----- AuxJ basis set information -----
Your calculation utilizes the auxiliary basis: def2/J
   F. Weigend, Phys. Chem. Chem. Phys. 8, 1057 (2006).

================================================================================
                                        WARNINGS
                       Please study these warnings very carefully!
================================================================================


WARNING: Geometry Optimization
  ===> : Switching off AutoStart
         For restart on a previous wavefunction, please use MOREAD

INFO   : the flag for use of LIBINT has been found!

================================================================================
                                       INPUT FILE
================================================================================
NAME = o-MeO-DMBI.inp
|  1> # avogadro generated ORCA input file 
|  2> # Basic Mode
|  3> # 
|  4> ! wB97X-D3 OPT def2-TZVP def2/J CPCM
|  5> %cpcm
|  6>   epsilon 3
|  7> end
|  8> %pal
|  9>  nprocs 4
| 10> end
| 11> 
| 12> * xyz 0 1
| 13>    C      -16.10159       -1.28317       -0.00221
| 14>    C      -16.21081       -2.69180       -0.00810
| 15>    C      -14.83392       -0.68728        0.00707
| 16>    H      -16.99506       -0.66566        0.00085
| 17>    C      -15.04923       -3.50110       -0.04520
| 18>    H      -17.19713       -3.14221        0.00157
| 19>    C      -13.70773       -1.51773       -0.01704
| 20>    H      -14.73547        0.39631        0.02511
| 21>    C      -13.78686       -2.87883       -0.08069
| 22>    H      -15.14199       -4.57682       -0.05479
| 23>    N      -12.37621       -1.14161        0.01350
| 24>    N      -12.47557       -3.43642       -0.17995
| 25>    C      -11.50560       -2.31561       -0.00441
| 26>    H      -12.15241       -0.14513        0.00523
| 27>    H      -12.30624       -4.45646       -0.17243
| 28>    C       -9.93695       -2.05145       -0.11022
| 29>    H      -11.28614       -2.67451        1.00901
| 30>    C       -8.97650       -3.10610       -0.10343
| 31>    C       -9.36090       -0.70947       -0.05880
| 32>    C       -7.58432       -2.85552       -0.06579
| 33>    H       -9.28489       -4.13912       -0.09282
| 34>    C       -7.08874       -1.55614       -0.03602
| 35>    H       -6.86800       -3.66746       -0.04323
| 36>    C       -7.97300       -0.49916       -0.02959
| 37>    H       -6.02019       -1.35835       -0.00517
| 38>    H       -7.57304        0.51251        0.01669
| 39>    O      -10.10903        0.40556       -0.00673
| 40>    H       -9.74563        1.30377        0.04679
| 41> *
| 42> 
| 43> 
| 44>                          ****END OF INPUT****
================================================================================

                       *****************************
                       * Geometry Optimization Run *
                       *****************************

Geometry optimization settings:
Update method            Update   .... BFGS
Choice of coordinates    CoordSys .... Z-matrix Internals
Initial Hessian          InHess   .... Almoef's Model

Convergence Tolerances:
Energy Change            TolE     ....  5.0000e-06 Eh
Max. Gradient            TolMAXG  ....  3.0000e-04 Eh/bohr
RMS Gradient             TolRMSG  ....  1.0000e-04 Eh/bohr
Max. Displacement        TolMAXD  ....  4.0000e-03 bohr
RMS Displacement         TolRMSD  ....  2.0000e-03 bohr
Strict Convergence                ....  False
------------------------------------------------------------------------------
                        ORCA OPTIMIZATION COORDINATE SETUP
------------------------------------------------------------------------------

The optimization will be done in new redundant internal coordinates
Making redundant internal coordinates   ...  (new redundants) done
Evaluating the initial hessian          ...  (Almloef) done
Evaluating the coordinates              ...  done
Calculating the B-matrix                .... done
Calculating the G-matrix                .... done
Diagonalizing the G-matrix              .... done
Small eigenvalue found = 6.768e-03
The first mode is                       ....   77
The number of degrees of freedom        ....   78

    -----------------------------------------------------------------
                    Redundant Internal Coordinates


    -----------------------------------------------------------------
         Definition                    Initial Value    Approx d2E/dq
    -----------------------------------------------------------------
      1. B(C   1,C   0)                  1.4129         0.574448   
      2. B(C   2,C   0)                  1.4008         0.600558   
      3. B(H   3,C   0)                  1.0861         0.365294   
      4. B(C   4,C   1)                  1.4162         0.567472   
      5. B(H   5,C   1)                  1.0843         0.367668   
      6. B(C   6,C   2)                  1.3995         0.603421   
      7. B(H   7,C   2)                  1.0882         0.362485   
      8. B(C   8,C   6)                  1.3649         0.685190   
      9. B(C   8,C   4)                  1.4079         0.585128   
     10. B(H   9,C   4)                  1.0798         0.373912   
     11. B(N  10,C   6)                  1.3840         0.572153   
     12. B(N  11,C   8)                  1.4284         0.486025   
     13. B(C  12,N  11)                  1.4926         0.383862   
     14. B(C  12,N  10)                  1.4617         0.430019   
     15. B(H  13,N  10)                  1.0213         0.415058   
     16. B(H  14,N  11)                  1.0340         0.396152   
     17. B(C  15,C  12)                  1.5943         0.295031   
     18. B(H  16,C  12)                  1.0973         0.350616   
     19. B(C  17,C  15)                  1.4265         0.546467   
     20. B(C  18,C  15)                  1.4613         0.480827   
     21. B(C  19,C  17)                  1.4151         0.569862   
     22. B(H  20,C  17)                  1.0781         0.376161   
     23. B(C  21,C  19)                  1.3910         0.622511   
     24. B(H  22,C  19)                  1.0830         0.369492   
     25. B(C  23,C  21)                  1.3781         0.652712   
     26. B(C  23,C  18)                  1.4040         0.593371   
     27. B(H  24,C  21)                  1.0871         0.363904   
     28. B(H  25,C  23)                  1.0888         0.361630   
     29. B(O  26,C  18)                  1.3438         0.663196   
     30. B(H  27,O  26)                  0.9704         0.500438   
     31. A(C   1,C   0,H   3)          120.2165         0.349232   
     32. A(C   2,C   0,H   3)          120.1714         0.351863   
     33. A(C   1,C   0,C   2)          119.6111         0.425720   
     34. A(C   4,C   1,H   5)          120.5926         0.348894   
     35. A(C   0,C   1,C   4)          120.4276         0.421429   
     36. A(C   0,C   1,H   5)          118.9738         0.349614   
     37. A(C   6,C   2,H   7)          121.2228         0.351687   
     38. A(C   0,C   2,H   7)          120.3700         0.351405   
     39. A(C   0,C   2,C   6)          118.4056         0.429491   
     40. A(C   8,C   4,H   9)          121.1415         0.351702   
     41. A(C   1,C   4,H   9)          119.9401         0.349887   
     42. A(C   1,C   4,C   8)          118.9161         0.422818   
     43. A(C   2,C   6,C   8)          123.0865         0.439805   
     44. A(C   2,C   6,N  10)          127.7764         0.423007   
     45. A(C   8,C   6,N  10)          109.1369         0.432753   
     46. A(C   4,C   8,C   6)          119.4446         0.437369   
     47. A(C   6,C   8,N  11)          109.8344         0.420291   
     48. A(C   4,C   8,N  11)          130.7208         0.408663   
     49. A(C  12,N  10,H  13)          130.7694         0.334907   
     50. A(C   6,N  10,H  13)          118.4115         0.351327   
     51. A(C   6,N  10,C  12)          110.7626         0.395807   
     52. A(C  12,N  11,H  14)          129.3072         0.326152   
     53. A(C   8,N  11,H  14)          122.3383         0.339163   
     54. A(C   8,N  11,C  12)          107.1743         0.377182   
     55. A(C  15,C  12,H  16)           85.3367         0.310733   
     56. A(N  11,C  12,H  16)           89.5979         0.322407   
     57. A(N  10,C  12,H  16)          111.7476         0.328484   
     58. A(N  11,C  12,C  15)          139.1155         0.348530   
     59. A(N  10,C  12,C  15)          116.9866         0.355286   
     60. A(N  10,C  12,N  11)          102.5617         0.369306   
     61. A(C  12,C  15,C  17)          122.6615         0.372461   
     62. A(C  17,C  15,C  18)          114.4179         0.405595   
     63. A(C  12,C  15,C  18)          122.5275         0.364369   
     64. A(C  19,C  17,H  20)          116.7971         0.350490   
     65. A(C  15,C  17,H  20)          121.0555         0.348020   
     66. A(C  15,C  17,C  19)          122.1155         0.418006   
     67. A(C  23,C  18,O  26)          115.1659         0.433048   
     68. A(C  15,C  18,O  26)          122.9510         0.417055   
     69. A(C  15,C  18,C  23)          121.8678         0.411551   
     70. A(C  21,C  19,H  22)          117.6612         0.354694   
     71. A(C  17,C  19,H  22)          121.2336         0.349433   
     72. A(C  17,C  19,C  21)          121.0982         0.427852   
     73. A(C  23,C  21,H  24)          119.4066         0.356634   
     74. A(C  19,C  21,H  24)          121.3822         0.353780   
     75. A(C  19,C  21,C  23)          119.2066         0.438425   
     76. A(C  21,C  23,H  25)          118.4977         0.356254   
     77. A(C  18,C  23,H  25)          120.2090         0.350550   
     78. A(C  18,C  23,C  21)          121.2846         0.434654   
     79. A(C  18,O  26,H  27)          124.1727         0.371973   
     80. D(C   4,C   1,C   0,C   2)     -1.9015         0.022652   
     81. D(H   5,C   1,C   0,H   3)     -0.6686         0.022652   
     82. D(C   4,C   1,C   0,H   3)    178.4470         0.022652   
     83. D(H   5,C   1,C   0,C   2)    178.9828         0.022652   
     84. D(H   7,C   2,C   0,C   1)   -179.1805         0.024866   
     85. D(C   6,C   2,C   0,C   1)      1.2686         0.024866   
     86. D(C   6,C   2,C   0,H   3)   -179.0798         0.024866   
     87. D(H   7,C   2,C   0,H   3)      0.4711         0.024866   
     88. D(C   8,C   4,C   1,H   5)    178.8848         0.022082   
     89. D(H   9,C   4,C   1,C   0)   -179.6725         0.022082   
     90. D(C   8,C   4,C   1,C   0)     -0.2164         0.022082   
     91. D(H   9,C   4,C   1,H   5)     -0.5713         0.022082   
     92. D(N  10,C   6,C   2,C   0)   -178.5999         0.025117   
     93. D(C   8,C   6,C   2,H   7)   -177.9653         0.025117   
     94. D(C   8,C   6,C   2,C   0)      1.5816         0.025117   
     95. D(N  10,C   6,C   2,H   7)      1.8532         0.025117   
     96. D(N  11,C   8,C   6,N  10)     -3.6859         0.032950   
     97. D(C   4,C   8,C   6,N  10)    176.4165         0.032950   
     98. D(N  11,C   8,C   4,H   9)      2.5469         0.023542   
     99. D(C   4,C   8,C   6,C   2)     -3.7354         0.032950   
    100. D(N  11,C   8,C   4,C   1)   -176.9025         0.023542   
    101. D(N  11,C   8,C   6,C   2)    176.1623         0.032950   
    102. D(C   6,C   8,C   4,H   9)   -177.5801         0.023542   
    103. D(C   6,C   8,C   4,C   1)      2.9706         0.023542   
    104. D(H  13,N  10,C   6,C   8)    176.3974         0.026211   
    105. D(H  13,N  10,C   6,C   2)     -3.4416         0.026211   
    106. D(C  12,N  10,C   6,C   8)     -1.1602         0.026211   
    107. D(C  12,N  10,C   6,C   2)    179.0007         0.026211   
    108. D(H  14,N  11,C   8,C   4)     -4.5480         0.018645   
    109. D(C  12,N  11,C   8,C   6)      6.9250         0.018645   
    110. D(C  12,N  11,C   8,C   4)   -173.1926         0.018645   
    111. D(H  14,N  11,C   8,C   6)    175.5695         0.018645   
    112. D(H  16,C  12,N  11,H  14)    -62.4657         0.012608   
    113. D(C  15,C  12,N  11,H  14)     19.9307         0.012608   
    114. D(C  15,C  12,N  11,C   8)   -172.4847         0.012608   
    115. D(N  10,C  12,N  11,H  14)   -174.6786         0.012608   
    116. D(N  10,C  12,N  11,C   8)     -7.0941         0.012608   
    117. D(H  16,C  12,N  10,H  13)     93.3270         0.015765   
    118. D(C  15,C  12,N  10,H  13)     -2.6951         0.015765   
    119. D(C  15,C  12,N  10,C   6)    174.4681         0.015765   
    120. D(H  16,C  12,N  10,C   6)    -89.5098         0.015765   
    121. D(H  16,C  12,N  11,C   8)    105.1189         0.012608   
    122. D(N  11,C  12,N  10,H  13)   -172.0185         0.015765   
    123. D(N  11,C  12,N  10,C   6)      5.1447         0.015765   
    124. D(C  18,C  15,C  12,H  16)   -106.0796         0.006863   
    125. D(C  18,C  15,C  12,N  11)    169.9462         0.006863   
    126. D(C  18,C  15,C  12,N  10)      5.9840         0.006863   
    127. D(C  17,C  15,C  12,H  16)     66.3188         0.006863   
    128. D(C  17,C  15,C  12,N  11)    -17.6554         0.006863   
    129. D(C  17,C  15,C  12,N  10)    178.3824         0.006863   
    130. D(H  20,C  17,C  15,C  18)    177.1674         0.020420   
    131. D(H  20,C  17,C  15,C  12)      4.2031         0.020420   
    132. D(C  19,C  17,C  15,C  18)     -0.7102         0.020420   
    133. D(C  19,C  17,C  15,C  12)   -173.6745         0.020420   
    134. D(O  26,C  18,C  15,C  17)   -177.4444         0.015741   
    135. D(O  26,C  18,C  15,C  12)     -4.4696         0.015741   
    136. D(C  23,C  18,C  15,C  17)      1.0654         0.015741   
    137. D(C  23,C  18,C  15,C  12)    174.0402         0.015741   
    138. D(H  22,C  19,C  17,H  20)      0.9303         0.022276   
    139. D(H  22,C  19,C  17,C  15)    178.8933         0.022276   
    140. D(C  21,C  19,C  17,H  20)   -178.0850         0.022276   
    141. D(C  21,C  19,C  17,C  15)     -0.1219         0.022276   
    142. D(C  23,C  21,C  19,C  17)      0.6612         0.026829   
    143. D(H  24,C  21,C  19,H  22)      0.8343         0.026829   
    144. D(H  24,C  21,C  19,C  17)    179.8836         0.026829   
    145. D(C  23,C  21,C  19,H  22)   -178.3882         0.026829   
    146. D(H  25,C  23,C  21,H  24)     -0.6094         0.029681   
    147. D(H  25,C  23,C  21,C  19)    178.6287         0.029681   
    148. D(C  18,C  23,C  21,H  24)   -179.5400         0.029681   
    149. D(C  18,C  23,C  21,C  19)     -0.3019         0.029681   
    150. D(H  25,C  23,C  18,O  26)     -0.8902         0.024244   
    151. D(H  25,C  23,C  18,C  15)   -179.5086         0.024244   
    152. D(C  21,C  23,C  18,O  26)    178.0223         0.024244   
    153. D(C  21,C  23,C  18,C  15)     -0.5961         0.024244   
    154. D(H  27,O  26,C  18,C  23)      0.0481         0.032615   
    155. D(H  27,O  26,C  18,C  15)    178.6498         0.032615   
    -----------------------------------------------------------------

Number of atoms                         .... 28
Number of degrees of freedom            .... 155

         *************************************************************
         *                GEOMETRY OPTIMIZATION CYCLE   1            *
         *************************************************************
---------------------------------
CARTESIAN COORDINATES (ANGSTROEM)
---------------------------------
  C    -16.101590   -1.283170   -0.002210
  C    -16.210810   -2.691800   -0.008100
  C    -14.833920   -0.687280    0.007070
  H    -16.995060   -0.665660    0.000850
  C    -15.049230   -3.501100   -0.045200
  H    -17.197130   -3.142210    0.001570
  C    -13.707730   -1.517730   -0.017040
  H    -14.735470    0.396310    0.025110
  C    -13.786860   -2.878830   -0.080690
  H    -15.141990   -4.576820   -0.054790
  N    -12.376210   -1.141610    0.013500
  N    -12.475570   -3.436420   -0.179950
  C    -11.505600   -2.315610   -0.004410
  H    -12.152410   -0.145130    0.005230
  H    -12.306240   -4.456460   -0.172430
  C     -9.936950   -2.051450   -0.110220
  H    -11.286140   -2.674510    1.009010
  C     -8.976500   -3.106100   -0.103430
  C     -9.360900   -0.709470   -0.058800
  C     -7.584320   -2.855520   -0.065790
  H     -9.284890   -4.139120   -0.092820
  C     -7.088740   -1.556140   -0.036020
  H     -6.868000   -3.667460   -0.043230
  C     -7.973000   -0.499160   -0.029590
  H     -6.020190   -1.358350   -0.005170
  H     -7.573040    0.512510    0.016690
  O    -10.109030    0.405560   -0.006730
  H     -9.745630    1.303770    0.046790

----------------------------
CARTESIAN COORDINATES (A.U.)
----------------------------
  NO LB      ZA    FRAG     MASS         X           Y           Z
   0 C     6.0000    0    12.011  -30.427595   -2.424840   -0.004176
   1 C     6.0000    0    12.011  -30.633991   -5.086765   -0.015307
   2 C     6.0000    0    12.011  -28.032046   -1.298771    0.013360
   3 H     1.0000    0     1.008  -32.116009   -1.257915    0.001606
   4 C     6.0000    0    12.011  -28.438923   -6.616120   -0.085416
   5 H     1.0000    0     1.008  -32.497866   -5.937916    0.002967
   6 C     6.0000    0    12.011  -25.903856   -2.868094   -0.032201
   7 H     1.0000    0     1.008  -27.846003    0.748917    0.047451
   8 C     6.0000    0    12.011  -26.053390   -5.440200   -0.152482
   9 H     1.0000    0     1.008  -28.614214   -8.648936   -0.103538
  10 N     7.0000    0    14.007  -23.387647   -2.157330    0.025511
  11 N     7.0000    0    14.007  -23.575411   -6.493893   -0.340056
  12 C     6.0000    0    12.011  -21.742433   -4.375869   -0.008334
  13 H     1.0000    0     1.008  -22.964727   -0.274256    0.009883
  14 H     1.0000    0     1.008  -23.255423   -8.421489   -0.325845
  15 C     6.0000    0    12.011  -18.778114   -3.876679   -0.208286
  16 H     1.0000    0     1.008  -21.327714   -5.054091    1.906753
  17 C     6.0000    0    12.011  -16.963127   -5.869678   -0.195454
  18 C     6.0000    0    12.011  -17.689537   -1.340704   -0.111116
  19 C     6.0000    0    12.011  -14.332288   -5.396151   -0.124325
  20 H     1.0000    0     1.008  -17.545899   -7.821803   -0.175404
  21 C     6.0000    0    12.011  -13.395777   -2.940678   -0.068068
  22 H     1.0000    0     1.008  -12.978639   -6.930495   -0.081693
  23 C     6.0000    0    12.011  -15.066786   -0.943276   -0.055917
  24 H     1.0000    0     1.008  -11.376510   -2.566909   -0.009770
  25 H     1.0000    0     1.008  -14.310972    0.968504    0.031540
  26 O     8.0000    0    15.999  -19.103298    0.766397   -0.012718
  27 H     1.0000    0     1.008  -18.416572    2.463768    0.088420

--------------------------------
INTERNAL COORDINATES (ANGSTROEM)
--------------------------------
 C      0   0   0     0.000000000000     0.00000000     0.00000000
 C      1   0   0     1.412870191277     0.00000000     0.00000000
 C      1   2   0     1.400770587712   119.61113124     0.00000000
 H      1   2   3     1.086101562746   120.21650043   180.34855301
 C      2   1   3     1.416195959746   120.42760982   358.09848950
 H      2   1   3     1.084338424755   118.97380617   178.98280682
 C      3   1   2     1.399475762813   118.40562834     1.26862061
 H      3   1   2     1.088202707311   120.36999564   180.81951909
 C      7   3   1     1.364883177931   123.08653408     1.58155560
 H      5   2   1     1.079754557342   119.94012983   180.32745650
 N      7   3   1     1.383959701870   127.77641304   181.40009013
 N      9   7   3     1.428369917003   109.83442626   176.16232670
 C     11   7   3     1.461697143802   110.76262527   179.00069511
 H     11   7   3     1.021335999219   118.41145726   356.55835014
 H     12   9   7     1.034026499129   122.33831893   175.56951747
 C     13  11   7     1.594251888567   116.98657411   174.46814168
 H     13  11   7     1.097265691617   111.74755055   270.49024396
 C     16  13  11     1.426463083679   122.66145169   178.38242960
 C     16  13  11     1.461296663686   122.52753404     5.98399912
 C     18  16  13     1.415052033814   122.11549092   186.32554434
 H     18  16  13     1.078122110245   121.05546033     4.20311366
 C     20  18  16     1.390997546260   121.09815349   359.87809048
 H     20  18  16     1.082991163214   121.23361828   178.89334946
 C     22  20  18     1.378101524888   119.20660374     0.66115300
 H     22  20  18     1.087139231699   121.38223909   179.88361325
 H     24  22  20     1.088846191572   118.49773272   178.62866383
 O     19  16  13     1.343763998141   122.95100284   355.53038697
 H     27  19  16     0.970414939343   124.17269044   178.64981874

---------------------------
INTERNAL COORDINATES (A.U.)
---------------------------
 C      0   0   0     0.000000000000     0.00000000     0.00000000
 C      1   0   0     2.669937724295     0.00000000     0.00000000
 C      1   2   0     2.647072787228   119.61113124     0.00000000
 H      1   2   3     2.052434507214   120.21650043   180.34855301
 C      2   1   3     2.676222515885   120.42760982   358.09848950
 H      2   1   3     2.049102659274   118.97380617   178.98280682
 C      3   1   2     2.644625922776   118.40562834     1.26862061
 H      3   1   2     2.056405095010   120.36999564   180.81951909
 C      7   3   1     2.579255411086   123.08653408     1.58155560
 H      5   2   1     2.040440405229   119.94012983   180.32745650
 N      7   3   1     2.615304816918   127.77641304   181.40009013
 N      9   7   3     2.699227961068   109.83442626   176.16232670
 C     11   7   3     2.762207292521   110.76262527   179.00069511
 H     11   7   3     1.930045329238   118.41145726   356.55835014
 H     12   9   7     1.954026898570   122.33831893   175.56951747
 C     13  11   7     3.012699457879   116.98657411   174.46814168
 H     13  11   7     2.073531653304   111.74755055   270.49024396
 C     16  13  11     2.695624568303   122.66145169   178.38242960
 C     16  13  11     2.761450494779   122.52753404     5.98399912
 C     18  16  13     2.674060809156   122.11549092   186.32554434
 H     18  16  13     2.037355527289   121.05546033     4.20311366
 C     20  18  16     2.628604415387   121.09815349   359.87809048
 H     20  18  16     2.046556703932   121.23361828   178.89334946
 C     22  20  18     2.604234466779   119.20660374     0.66115300
 H     22  20  18     2.054395417353   121.38223909   179.88361325
 H     24  22  20     2.057621104033   118.49773272   178.62866383
 O     19  16  13     2.539345945110   122.95100284   355.53038697
 H     27  19  16     1.833818471624   124.17269044   178.64981874

---------------------
BASIS SET INFORMATION
---------------------
There are 4 groups of distinct atoms

 Group   1 Type C   : 11s6p2d1f contracted to 5s3p2d1f pattern {62111/411/11/1}
 Group   2 Type H   : 5s1p contracted to 3s1p pattern {311/1}
 Group   3 Type N   : 11s6p2d1f contracted to 5s3p2d1f pattern {62111/411/11/1}
 Group   4 Type O   : 11s6p2d1f contracted to 5s3p2d1f pattern {62111/411/11/1}

Atom   0C    basis set group =>   1
Atom   1C    basis set group =>   1
Atom   2C    basis set group =>   1
Atom   3H    basis set group =>   2
Atom   4C    basis set group =>   1
Atom   5H    basis set group =>   2
Atom   6C    basis set group =>   1
Atom   7H    basis set group =>   2
Atom   8C    basis set group =>   1
Atom   9H    basis set group =>   2
Atom  10N    basis set group =>   3
Atom  11N    basis set group =>   3
Atom  12C    basis set group =>   1
Atom  13H    basis set group =>   2
Atom  14H    basis set group =>   2
Atom  15C    basis set group =>   1
Atom  16H    basis set group =>   2
Atom  17C    basis set group =>   1
Atom  18C    basis set group =>   1
Atom  19C    basis set group =>   1
Atom  20H    basis set group =>   2
Atom  21C    basis set group =>   1
Atom  22H    basis set group =>   2
Atom  23C    basis set group =>   1
Atom  24H    basis set group =>   2
Atom  25H    basis set group =>   2
Atom  26O    basis set group =>   4
Atom  27H    basis set group =>   2
---------------------------------
AUXILIARY/J BASIS SET INFORMATION
---------------------------------
There are 4 groups of distinct atoms

 Group   1 Type C   : 12s5p4d2f1g contracted to 6s4p3d1f1g pattern {711111/2111/211/2/1}
 Group   2 Type H   : 5s2p1d contracted to 3s1p1d pattern {311/2/1}
 Group   3 Type N   : 12s5p4d2f1g contracted to 6s4p3d1f1g pattern {711111/2111/211/2/1}
 Group   4 Type O   : 12s5p4d2f1g contracted to 6s4p3d1f1g pattern {711111/2111/211/2/1}

Atom   0C    basis set group =>   1
Atom   1C    basis set group =>   1
Atom   2C    basis set group =>   1
Atom   3H    basis set group =>   2
Atom   4C    basis set group =>   1
Atom   5H    basis set group =>   2
Atom   6C    basis set group =>   1
Atom   7H    basis set group =>   2
Atom   8C    basis set group =>   1
Atom   9H    basis set group =>   2
Atom  10N    basis set group =>   3
Atom  11N    basis set group =>   3
Atom  12C    basis set group =>   1
Atom  13H    basis set group =>   2
Atom  14H    basis set group =>   2
Atom  15C    basis set group =>   1
Atom  16H    basis set group =>   2
Atom  17C    basis set group =>   1
Atom  18C    basis set group =>   1
Atom  19C    basis set group =>   1
Atom  20H    basis set group =>   2
Atom  21C    basis set group =>   1
Atom  22H    basis set group =>   2
Atom  23C    basis set group =>   1
Atom  24H    basis set group =>   2
Atom  25H    basis set group =>   2
Atom  26O    basis set group =>   4
Atom  27H    basis set group =>   2


           ************************************************************
           *        Program running with 4 parallel MPI-processes     *
           *              working on a common directory               *
           ************************************************************
------------------------------------------------------------------------------
                           ORCA GTO INTEGRAL CALCULATION
------------------------------------------------------------------------------

                         BASIS SET STATISTICS AND STARTUP INFO

 # of primitive gaussian shells          ...  392
 # of primitive gaussian functions       ...  832
 # of contracted shells                  ...  224
 # of contracted basis functions         ...  568
 Highest angular momentum                ...    3
 Maximum contraction depth               ...    6
 Integral package used                   ... LIBINT
 Integral threshhold            Thresh   ...  2.500e-11
 Primitive cut-off              TCut     ...  2.500e-12


------------------------------ INTEGRAL EVALUATION ----------------------------


 * One electron integrals 
 Pre-screening matrix                    ... done
 Shell pair data                         ... done (   0.007 sec)



           ************************************************************
           *        Program running with 4 parallel MPI-processes     *
           *              working on a common directory               *
           ************************************************************
-------------------------------------------------------------------------------
                                 ORCA SCF
-------------------------------------------------------------------------------

------------
SCF SETTINGS
------------
Hamiltonian:
 Density Functional     Method          .... DFT(GTOs)
 Exchange Functional    Exchange        .... WB97X-D3
 Correlation Functional Correlation     .... WB97X-D3
 Gradients option       PostSCFGGA      .... off
 Hybrid DFT is turned on
   Fraction HF Exchange ScalHFX         ....  0.195728
   Scaling of DF-GGA-X  ScalDFX         ....  0.000000
   Scaling of DF-GGA-C  ScalDFC         ....  1.000000
   Scaling of DF-LDA-C  ScalLDAC        ....  1.000000
   Perturbative correction              ....  0.000000
   Density functional embedding theory  .... OFF
 Long-range corrected/Screened/Range-Separated Hybrid DFT is turned on
   Amount of maximum screened exact exchange              ....  0.804272
   Range separation parameter mu (erf(mu*r12)/r12)        ....  0.250000


General Settings:
 Integral files         IntName         .... o-MeO-DMBI
 Hartree-Fock type      HFTyp           .... RHF
 Total Charge           Charge          ....    0
 Multiplicity           Mult            ....    1
 Number of Electrons    NEL             ....  112
 Basis Dimension        Dim             ....  568
 Nuclear Repulsion      ENuc            ....    998.9898216141 Eh

Convergence Acceleration:
 DIIS                   CNVDIIS         .... on
   Start iteration      DIISMaxIt       ....    12
   Startup error        DIISStart       ....  0.200000
   # of expansion vecs  DIISMaxEq       ....     5
   Bias factor          DIISBfac        ....   1.050
   Max. coefficient     DIISMaxC        ....  10.000
 Newton-Raphson         CNVNR           .... off
 SOSCF                  CNVSOSCF        .... on
   Start iteration      SOSCFMaxIt      ....   150
   Startup grad/error   SOSCFStart      ....  0.003300
 Level Shifting         CNVShift        .... on
   Level shift para.    LevelShift      ....    0.2500
   Turn off err/grad.   ShiftErr        ....    0.0010
 Zerner damping         CNVZerner       .... off
 Static damping         CNVDamp         .... on
   Fraction old density DampFac         ....    0.7000
   Max. Damping (<1)    DampMax         ....    0.9800
   Min. Damping (>=0)   DampMin         ....    0.0000
   Turn off err/grad.   DampErr         ....    0.1000
 Fernandez-Rico         CNVRico         .... off

SCF Procedure:
 Maximum # iterations   MaxIter         ....   125
 SCF integral mode      SCFMode         .... Direct
   Integral package                     .... LIBINT
 Reset frequency        DirectResetFreq ....    20
 Integral Threshold     Thresh          ....  2.500e-11 Eh
 Primitive CutOff       TCut            ....  2.500e-12 Eh

Convergence Tolerance:
 Convergence Check Mode ConvCheckMode   .... Total+1el-Energy
 Convergence forced     ConvForced      .... 0
 Energy Change          TolE            ....  1.000e-08 Eh
 1-El. energy change                    ....  1.000e-05 Eh
 Orbital Gradient       TolG            ....  1.000e-05
 Orbital Rotation angle TolX            ....  1.000e-05
 DIIS Error             TolErr          ....  5.000e-07


Diagonalization of the overlap matrix:
Smallest eigenvalue                        ... 7.968e-06
Time for diagonalization                   ...    0.215 sec
Threshold for overlap eigenvalues          ... 1.000e-08
Number of eigenvalues below threshold      ... 0
Time for construction of square roots      ...    0.035 sec
Total time needed                          ...    0.251 sec

-------------------
DFT GRID GENERATION
-------------------

General Integration Accuracy     IntAcc      ...  4.340
Radial Grid Type                 RadialGrid  ... Gauss-Chebyshev
Angular Grid (max. acc.)         AngularGrid ... Lebedev-110
Angular grid pruning method      GridPruning ... 3 (G Style)
Weight generation scheme         WeightScheme... Becke
Basis function cutoff            BFCut       ...    1.0000e-11
Integration weight cutoff        WCut        ...    1.0000e-14
Grids for H and He will be reduced by one unit

# of grid points (after initial pruning)     ...  36176 (   0.0 sec)
# of grid points (after weights+screening)   ...  32832 (   0.1 sec)
nearest neighbour list constructed           ...    0.0 sec
Grid point re-assignment to atoms done       ...    0.0 sec
Grid point division into batches done        ...    0.0 sec
Reduced shell lists constructed in    0.2 sec

Total number of grid points                  ...    32832
Total number of batches                      ...      525
Average number of points per batch           ...       62
Average number of grid points per atom       ...     1173
Average number of shells per batch           ...   105.29 (47.00%)
Average number of basis functions per batch  ...   265.33 (46.71%)
Average number of large shells per batch     ...    75.44 (71.66%)
Average number of large basis fcns per batch ...   195.29 (73.60%)
Maximum spatial batch extension              ...  18.57, 16.70, 40.23 au
Average spatial batch extension              ...   0.78,  0.80,  1.34 au

Time for grid setup =    0.248 sec

------------------------------
INITIAL GUESS: MODEL POTENTIAL
------------------------------
Loading Hartree-Fock densities                     ... done
Calculating cut-offs                               ... done
Setting up the integral package                    ... done
Initializing the effective Hamiltonian             ... done
Starting the Coulomb interaction                   ... done (   0.3 sec)
Reading the grid                                   ... done
Mapping shells                                     ... done
Starting the XC term evaluation                    ... done (   0.4 sec)
  promolecular density results
     # of electrons  =    112.002565912
     EX              =    -91.267468003
     EC              =     -3.752598101
     EX+EC           =    -95.020066103
Transforming the Hamiltonian                       ... done (   0.0 sec)
Diagonalizing the Hamiltonian                      ... done (   0.0 sec)
Back transforming the eigenvectors                 ... done (   0.0 sec)
Now organizing SCF variables                       ... done
                      ------------------
                      INITIAL GUESS DONE (   1.1 sec)
                      ------------------

--------------------
CPCM SOLVATION MODEL
--------------------
CPCM parameters:
  Epsilon                                         ...       3.0000
  Refrac                                          ...       1.3300
  Rsolv                                           ...       1.3000
  Surface type                                    ...    GEPOL SES
  Epsilon function type                           ...         CPCM
Radii:
 Radius for C  used is    3.7795 Bohr (=   2.0000 Ang.)
 Radius for H  used is    2.4566 Bohr (=   1.3000 Ang.)
 Radius for N  used is    3.4582 Bohr (=   1.8300 Ang.)
 Radius for O  used is    3.2503 Bohr (=   1.7200 Ang.)
Calculating surface                               ...        done! (  0.0s)
GEPOL surface points                              ...          930
GEPOL Volume                                      ...    1703.6274
GEPOL Surface-area                                ...     884.2061
Calculating surface distance matrix               ...        done! (  0.0s)
Performing Cholesky decomposition & store         ...        done! (  0.0s)
Overall time for CPCM initialization              ...                 0.1s
--------------
SCF ITERATIONS
--------------
ITER       Energy         Delta-E        Max-DP      RMS-DP      [F,P]     Damp
               ***  Starting incremental Fock matrix formation  ***
  0   -686.9212238457   0.000000000000 0.03994097  0.00068427  0.2044571 0.7000
  1   -687.0657338365  -0.144509990823 0.03091714  0.00056343  0.1078489 0.7000
                               ***Turning on DIIS***
  2   -687.1414055278  -0.075671691292 0.07321420  0.00129270  0.0491403 0.0000
  3   -687.2662170207  -0.124811492848 0.01477897  0.00026554  0.0437848 0.0000
  4   -687.2836013078  -0.017384287119 0.00600690  0.00011928  0.0061820 0.0000
  5   -687.2841614520  -0.000560144228 0.00381432  0.00005836  0.0044787 0.0000
                      *** Initiating the SOSCF procedure ***
                           *** Shutting down DIIS ***
                      *** Re-Reading the Fockian *** 
                      *** Removing any level shift *** 
ITER      Energy       Delta-E        Grad      Rot      Max-DP    RMS-DP
  6   -687.28427874  -0.0001172882  0.001421  0.001421  0.002845  0.000041
               *** Restarting incremental Fock matrix formation ***
  7   -687.28431810  -0.0000393608  0.000971  0.003123  0.002326  0.000033
  8   -687.28433728  -0.0000191777  0.000349  0.003248  0.003424  0.000044
  9   -687.28434291  -0.0000056358  0.000121  0.000426  0.000624  0.000010
 10   -687.28434469  -0.0000017714  0.000042  0.000100  0.000106  0.000002
 11   -687.28434477  -0.0000000821  0.000021  0.000093  0.000056  0.000001
 12   -687.28434480  -0.0000000320  0.000005  0.000045  0.000028  0.000000
 13   -687.28434480   0.0000000018  0.000003  0.000006  0.000023  0.000000
                  ***Gradient check signals convergence***
              ***Rediagonalizing the Fockian in SOSCF/NRSCF***

               *****************************************************
               *                     SUCCESS                       *
               *           SCF CONVERGED AFTER  14 CYCLES          *
               *****************************************************

Setting up the final grid:

General Integration Accuracy     IntAcc      ...  4.670
Radial Grid Type                 RadialGrid  ... Gauss-Chebyshev
Angular Grid (max. acc.)         AngularGrid ... Lebedev-302
Angular grid pruning method      GridPruning ... 3 (G Style)
Weight generation scheme         WeightScheme... Becke
Basis function cutoff            BFCut       ...    1.0000e-11
Integration weight cutoff        WCut        ...    1.0000e-14
Grids for H and He will be reduced by one unit

# of grid points (after initial pruning)     ... 140120 (   0.0 sec)
# of grid points (after weights+screening)   ... 124902 (   0.3 sec)
nearest neighbour list constructed           ...    0.0 sec
Grid point re-assignment to atoms done       ...    0.0 sec
Grid point division into batches done        ...    0.5 sec
Reduced shell lists constructed in    1.0 sec

Total number of grid points                  ...   124902
Total number of batches                      ...     1965
Average number of points per batch           ...       63
Average number of grid points per atom       ...     4461
Average number of shells per batch           ...    95.51 (42.64%)
Average number of basis functions per batch  ...   240.44 (42.33%)
Average number of large shells per batch     ...    67.58 (70.76%)
Average number of large basis fcns per batch ...   173.88 (72.32%)
Maximum spatial batch extension              ...  14.98, 16.40, 23.20 au
Average spatial batch extension              ...   0.55,  0.55,  0.69 au

Final grid set up in    1.3 sec
Final integration                            ... done (   1.5 sec)
Change in XC energy                          ...     0.001460907
Integrated number of electrons               ...   111.999863182
Previous integrated no of electrons          ...   112.011955171

----------------
TOTAL SCF ENERGY
----------------

Total Energy       :         -687.28288389 Eh          -18701.91806 eV

Components:
Nuclear Repulsion  :          998.98982161 Eh           27183.89505 eV
Electronic Energy  :        -1686.27270550 Eh          -45885.81311 eV
One Electron Energy:        -2914.33296700 Eh          -79303.03172 eV
Two Electron Energy:         1228.06026150 Eh           33417.21861 eV
CPCM Dielectric    :           -0.01554724 Eh              -0.42306 eV

Virial components:
Potential Energy   :        -1370.86216360 Eh          -37303.05592 eV
Kinetic Energy     :          683.57927971 Eh           18601.13786 eV
Virial Ratio       :            2.00541796


DFT components:
N(Alpha)           :       55.999931590944 electrons
N(Beta)            :       55.999931590944 electrons
N(Total)           :      111.999863181888 electrons
E(XC)              :      -67.109488096788 Eh       
DFET-embed. en.    :        0.000000000000 Eh       
CPCM Solvation Model Properties:
Surface-charge          :           -0.03507522
Charge-correction       :            0.00015808 Eh               0.00430 eV
Free-energy (cav+disp)  :            0.00477406 Eh               0.12991 eV
Corrected G(solv)       :         -687.27795175 Eh          -18701.78385 eV

---------------
SCF CONVERGENCE
---------------

  Last Energy change         ...    1.7126e-09  Tolerance :   1.0000e-08
  Last MAX-Density change    ...    1.7732e-05  Tolerance :   1.0000e-07
  Last RMS-Density change    ...    2.0197e-07  Tolerance :   5.0000e-09
  Last Orbital Gradient      ...    5.6349e-07  Tolerance :   1.0000e-05
  Last Orbital Rotation      ...    2.7799e-06  Tolerance :   1.0000e-05

             **** THE GBW FILE WAS UPDATED (o-MeO-DMBI.gbw) ****
             **** DENSITY FILE WAS UPDATED (o-MeO-DMBI.scfp) ****
             **** ENERGY FILE WAS UPDATED (o-MeO-DMBI.en.tmp) ****
             **** THE GBW FILE WAS UPDATED (o-MeO-DMBI.gbw) ****
             **** DENSITY FILE WAS UPDATED (o-MeO-DMBI.scfp) ****
----------------
ORBITAL ENERGIES
----------------

  NO   OCC          E(Eh)            E(eV) 
   0   2.0000     -19.266107      -524.2574 
   1   2.0000     -14.436793      -392.8451 
   2   2.0000     -14.427168      -392.5832 
   3   2.0000     -10.371159      -282.2136 
   4   2.0000     -10.360849      -281.9330 
   5   2.0000     -10.327370      -281.0220 
   6   2.0000     -10.311036      -280.5775 
   7   2.0000     -10.304531      -280.4005 
   8   2.0000     -10.292428      -280.0712 
   9   2.0000     -10.279453      -279.7181 
  10   2.0000     -10.278873      -279.7024 
  11   2.0000     -10.278227      -279.6848 
  12   2.0000     -10.272465      -279.5280 
  13   2.0000     -10.268202      -279.4120 
  14   2.0000     -10.266496      -279.3656 
  15   2.0000     -10.266001      -279.3521 
  16   2.0000      -1.186896       -32.2971 
  17   2.0000      -1.100032       -29.9334 
  18   2.0000      -0.983012       -26.7491 
  19   2.0000      -0.973540       -26.4914 
  20   2.0000      -0.952259       -25.9123 
  21   2.0000      -0.889764       -24.2117 
  22   2.0000      -0.856909       -23.3177 
  23   2.0000      -0.844440       -22.9784 
  24   2.0000      -0.838703       -22.8223 
  25   2.0000      -0.770763       -20.9735 
  26   2.0000      -0.744170       -20.2499 
  27   2.0000      -0.738307       -20.0904 
  28   2.0000      -0.703873       -19.1534 
  29   2.0000      -0.692866       -18.8538 
  30   2.0000      -0.662212       -18.0197 
  31   2.0000      -0.635662       -17.2972 
  32   2.0000      -0.606353       -16.4997 
  33   2.0000      -0.595547       -16.2057 
  34   2.0000      -0.582299       -15.8452 
  35   2.0000      -0.570531       -15.5249 
  36   2.0000      -0.555962       -15.1285 
  37   2.0000      -0.551898       -15.0179 
  38   2.0000      -0.534689       -14.5496 
  39   2.0000      -0.526706       -14.3324 
  40   2.0000      -0.525045       -14.2872 
  41   2.0000      -0.519207       -14.1283 
  42   2.0000      -0.512659       -13.9502 
  43   2.0000      -0.487525       -13.2662 
  44   2.0000      -0.470827       -12.8119 
  45   2.0000      -0.455734       -12.4012 
  46   2.0000      -0.448518       -12.2048 
  47   2.0000      -0.444834       -12.1045 
  48   2.0000      -0.437140       -11.8952 
  49   2.0000      -0.430222       -11.7069 
  50   2.0000      -0.403701       -10.9853 
  51   2.0000      -0.382835       -10.4175 
  52   2.0000      -0.337026        -9.1709 
  53   2.0000      -0.312119        -8.4932 
  54   2.0000      -0.306886        -8.3508 
  55   2.0000      -0.237174        -6.4538 
  56   0.0000       0.052116         1.4182 
  57   0.0000       0.069917         1.9025 
  58   0.0000       0.073931         2.0118 
  59   0.0000       0.094424         2.5694 
  60   0.0000       0.116473         3.1694 
  61   0.0000       0.118701         3.2300 
  62   0.0000       0.137384         3.7384 
  63   0.0000       0.147692         4.0189 
  64   0.0000       0.156412         4.2562 
  65   0.0000       0.162704         4.4274 
  66   0.0000       0.168222         4.5776 
  67   0.0000       0.175698         4.7810 
  68   0.0000       0.190756         5.1907 
  69   0.0000       0.195066         5.3080 
  70   0.0000       0.201630         5.4866 
  71   0.0000       0.207629         5.6499 
  72   0.0000       0.216318         5.8863 
  73   0.0000       0.223710         6.0875 
  74   0.0000       0.233185         6.3453 
  75   0.0000       0.237695         6.4680 
  76   0.0000       0.250557         6.8180 
  77   0.0000       0.254729         6.9315 
  78   0.0000       0.257566         7.0087 
  79   0.0000       0.267900         7.2899 
  80   0.0000       0.268280         7.3003 
  81   0.0000       0.282180         7.6785 
  82   0.0000       0.290999         7.9185 
  83   0.0000       0.292574         7.9613 
  84   0.0000       0.299449         8.1484 
  85   0.0000       0.302126         8.2213 
  86   0.0000       0.304327         8.2812 
  87   0.0000       0.309111         8.4113 
  88   0.0000       0.324570         8.8320 
  89   0.0000       0.330014         8.9801 
  90   0.0000       0.338205         9.2030 
  91   0.0000       0.339750         9.2451 
  92   0.0000       0.349579         9.5125 
  93   0.0000       0.352916         9.6033 
  94   0.0000       0.356027         9.6880 
  95   0.0000       0.361117         9.8265 
  96   0.0000       0.371028        10.0962 
  97   0.0000       0.371408        10.1065 
  98   0.0000       0.381092        10.3701 
  99   0.0000       0.395901        10.7730 
 100   0.0000       0.398082        10.8324 
 101   0.0000       0.406520        11.0620 
 102   0.0000       0.415582        11.3086 
 103   0.0000       0.419726        11.4213 
 104   0.0000       0.425715        11.5843 
 105   0.0000       0.427933        11.6447 
 106   0.0000       0.437833        11.9141 
 107   0.0000       0.440823        11.9954 
 108   0.0000       0.450988        12.2720 
 109   0.0000       0.458140        12.4666 
 110   0.0000       0.463087        12.6012 
 111   0.0000       0.464723        12.6457 
 112   0.0000       0.469587        12.7781 
 113   0.0000       0.473338        12.8802 
 114   0.0000       0.482323        13.1247 
 115   0.0000       0.487473        13.2648 
 116   0.0000       0.492725        13.4077 
 117   0.0000       0.499520        13.5926 
 118   0.0000       0.503105        13.6902 
 119   0.0000       0.510133        13.8814 
 120   0.0000       0.513668        13.9776 
 121   0.0000       0.515760        14.0346 
 122   0.0000       0.530494        14.4355 
 123   0.0000       0.533501        14.5173 
 124   0.0000       0.536174        14.5900 
 125   0.0000       0.538685        14.6584 
 126   0.0000       0.540882        14.7182 
 127   0.0000       0.546374        14.8676 
 128   0.0000       0.557056        15.1583 
 129   0.0000       0.558478        15.1970 
 130   0.0000       0.566342        15.4110 
 131   0.0000       0.576021        15.6743 
 132   0.0000       0.591087        16.0843 
 133   0.0000       0.593617        16.1531 
 134   0.0000       0.598698        16.2914 
 135   0.0000       0.603109        16.4114 
 136   0.0000       0.610971        16.6254 
 137   0.0000       0.620747        16.8914 
 138   0.0000       0.627424        17.0731 
 139   0.0000       0.628571        17.1043 
 140   0.0000       0.634727        17.2718 
 141   0.0000       0.650625        17.7044 
 142   0.0000       0.663167        18.0457 
 143   0.0000       0.679521        18.4907 
 144   0.0000       0.688636        18.7387 
 145   0.0000       0.699344        19.0301 
 146   0.0000       0.713163        19.4061 
 147   0.0000       0.716424        19.4949 
 148   0.0000       0.722988        19.6735 
 149   0.0000       0.734222        19.9792 
 150   0.0000       0.744050        20.2466 
 151   0.0000       0.749167        20.3859 
 152   0.0000       0.758487        20.6395 
 153   0.0000       0.766906        20.8686 
 154   0.0000       0.774470        21.0744 
 155   0.0000       0.779497        21.2112 
 156   0.0000       0.787087        21.4177 
 157   0.0000       0.795187        21.6381 
 158   0.0000       0.801007        21.7965 
 159   0.0000       0.809894        22.0383 
 160   0.0000       0.814647        22.1677 
 161   0.0000       0.819685        22.3048 
 162   0.0000       0.833165        22.6716 
 163   0.0000       0.839534        22.8449 
 164   0.0000       0.847736        23.0681 
 165   0.0000       0.863711        23.5028 
 166   0.0000       0.866648        23.5827 
 167   0.0000       0.871783        23.7224 
 168   0.0000       0.880291        23.9539 
 169   0.0000       0.893117        24.3030 
 170   0.0000       0.901530        24.5319 
 171   0.0000       0.923081        25.1183 
 172   0.0000       0.927740        25.2451 
 173   0.0000       0.932338        25.3702 
 174   0.0000       0.943659        25.6783 
 175   0.0000       0.945059        25.7164 
 176   0.0000       0.962576        26.1930 
 177   0.0000       0.971688        26.4410 
 178   0.0000       0.974666        26.5220 
 179   0.0000       0.979556        26.6551 
 180   0.0000       0.991308        26.9749 
 181   0.0000       1.002857        27.2891 
 182   0.0000       1.008650        27.4467 
 183   0.0000       1.026816        27.9411 
 184   0.0000       1.032284        28.0899 
 185   0.0000       1.042314        28.3628 
 186   0.0000       1.049379        28.5550 
 187   0.0000       1.087684        29.5974 
 188   0.0000       1.095973        29.8230 
 189   0.0000       1.103021        30.0147 
 190   0.0000       1.128288        30.7023 
 191   0.0000       1.134376        30.8680 
 192   0.0000       1.146055        31.1857 
 193   0.0000       1.152309        31.3559 
 194   0.0000       1.178343        32.0643 
 195   0.0000       1.179089        32.0846 
 196   0.0000       1.181008        32.1368 
 197   0.0000       1.197712        32.5914 
 198   0.0000       1.213168        33.0120 
 199   0.0000       1.217629        33.1334 
 200   0.0000       1.223165        33.2840 
 201   0.0000       1.236305        33.6416 
 202   0.0000       1.263292        34.3759 
 203   0.0000       1.281189        34.8629 
 204   0.0000       1.293133        35.1879 
 205   0.0000       1.296582        35.2818 
 206   0.0000       1.307439        35.5772 
 207   0.0000       1.311952        35.7000 
 208   0.0000       1.316729        35.8300 
 209   0.0000       1.330773        36.2122 
 210   0.0000       1.336264        36.3616 
 211   0.0000       1.340861        36.4867 
 212   0.0000       1.348980        36.7076 
 213   0.0000       1.371840        37.3297 
 214   0.0000       1.382073        37.6081 
 215   0.0000       1.389934        37.8220 
 216   0.0000       1.396890        38.0113 
 217   0.0000       1.414064        38.4786 
 218   0.0000       1.425879        38.8001 
 219   0.0000       1.441985        39.2384 
 220   0.0000       1.451476        39.4967 
 221   0.0000       1.460878        39.7525 
 222   0.0000       1.465846        39.8877 
 223   0.0000       1.472950        40.0810 
 224   0.0000       1.491508        40.5860 
 225   0.0000       1.502343        40.8808 
 226   0.0000       1.513540        41.1855 
 227   0.0000       1.525909        41.5221 
 228   0.0000       1.530466        41.6461 
 229   0.0000       1.547464        42.1086 
 230   0.0000       1.550285        42.1854 
 231   0.0000       1.561763        42.4977 
 232   0.0000       1.563983        42.5581 
 233   0.0000       1.575082        42.8602 
 234   0.0000       1.582595        43.0646 
 235   0.0000       1.601502        43.5791 
 236   0.0000       1.607146        43.7327 
 237   0.0000       1.630656        44.3724 
 238   0.0000       1.632900        44.4335 
 239   0.0000       1.635808        44.5126 
 240   0.0000       1.653765        45.0012 
 241   0.0000       1.661160        45.2025 
 242   0.0000       1.673314        45.5332 
 243   0.0000       1.677854        45.6567 
 244   0.0000       1.688469        45.9456 
 245   0.0000       1.696022        46.1511 
 246   0.0000       1.706548        46.4375 
 247   0.0000       1.716800        46.7165 
 248   0.0000       1.731071        47.1048 
 249   0.0000       1.738868        47.3170 
 250   0.0000       1.749333        47.6018 
 251   0.0000       1.759539        47.8795 
 252   0.0000       1.765030        48.0289 
 253   0.0000       1.770934        48.1896 
 254   0.0000       1.780258        48.4433 
 255   0.0000       1.784104        48.5479 
 256   0.0000       1.791823        48.7580 
 257   0.0000       1.798581        48.9419 
 258   0.0000       1.809135        49.2291 
 259   0.0000       1.814039        49.3625 
 260   0.0000       1.827565        49.7306 
 261   0.0000       1.836607        49.9766 
 262   0.0000       1.849133        50.3175 
 263   0.0000       1.867127        50.8071 
 264   0.0000       1.889173        51.4070 
 265   0.0000       1.899274        51.6819 
 266   0.0000       1.916027        52.1378 
 267   0.0000       1.922386        52.3108 
 268   0.0000       1.942638        52.8619 
 269   0.0000       1.951434        53.1012 
 270   0.0000       1.959547        53.3220 
 271   0.0000       1.962487        53.4020 
 272   0.0000       1.983519        53.9743 
 273   0.0000       2.003141        54.5082 
 274   0.0000       2.012459        54.7618 
 275   0.0000       2.042915        55.5906 
 276   0.0000       2.053679        55.8835 
 277   0.0000       2.059707        56.0475 
 278   0.0000       2.072013        56.3823 
 279   0.0000       2.076576        56.5065 
 280   0.0000       2.101124        57.1745 
 281   0.0000       2.106944        57.3328 
 282   0.0000       2.127567        57.8940 
 283   0.0000       2.131896        58.0118 
 284   0.0000       2.136430        58.1352 
 285   0.0000       2.162516        58.8450 
 286   0.0000       2.166491        58.9532 
 287   0.0000       2.176793        59.2336 
 288   0.0000       2.189458        59.5782 
 289   0.0000       2.205177        60.0059 
 290   0.0000       2.211483        60.1775 
 291   0.0000       2.223940        60.5165 
 292   0.0000       2.240008        60.9537 
 293   0.0000       2.253387        61.3178 
 294   0.0000       2.261306        61.5333 
 295   0.0000       2.276380        61.9434 
 296   0.0000       2.288601        62.2760 
 297   0.0000       2.296996        62.5044 
 298   0.0000       2.313226        62.9461 
 299   0.0000       2.322268        63.1921 
 300   0.0000       2.328350        63.3576 
 301   0.0000       2.338647        63.6378 
 302   0.0000       2.352580        64.0169 
 303   0.0000       2.358810        64.1865 
 304   0.0000       2.371501        64.5318 
 305   0.0000       2.405075        65.4454 
 306   0.0000       2.416098        65.7454 
 307   0.0000       2.431887        66.1750 
 308   0.0000       2.442937        66.4757 
 309   0.0000       2.474275        67.3284 
 310   0.0000       2.476636        67.3927 
 311   0.0000       2.487969        67.7011 
 312   0.0000       2.521147        68.6039 
 313   0.0000       2.553571        69.4862 
 314   0.0000       2.563870        69.7664 
 315   0.0000       2.575792        70.0909 
 316   0.0000       2.583964        70.3132 
 317   0.0000       2.604471        70.8713 
 318   0.0000       2.621200        71.3265 
 319   0.0000       2.632192        71.6256 
 320   0.0000       2.643207        71.9253 
 321   0.0000       2.653015        72.1922 
 322   0.0000       2.683583        73.0240 
 323   0.0000       2.686237        73.0962 
 324   0.0000       2.698668        73.4345 
 325   0.0000       2.708189        73.6936 
 326   0.0000       2.710449        73.7551 
 327   0.0000       2.717320        73.9420 
 328   0.0000       2.723967        74.1229 
 329   0.0000       2.739288        74.5398 
 330   0.0000       2.742454        74.6260 
 331   0.0000       2.746312        74.7309 
 332   0.0000       2.752103        74.8885 
 333   0.0000       2.756798        75.0163 
 334   0.0000       2.757215        75.0276 
 335   0.0000       2.776317        75.5474 
 336   0.0000       2.796076        76.0851 
 337   0.0000       2.798085        76.1398 
 338   0.0000       2.805506        76.3417 
 339   0.0000       2.814929        76.5981 
 340   0.0000       2.823245        76.8244 
 341   0.0000       2.832687        77.0813 
 342   0.0000       2.842105        77.3376 
 343   0.0000       2.845289        77.4242 
 344   0.0000       2.853063        77.6358 
 345   0.0000       2.859769        77.8183 
 346   0.0000       2.873398        78.1891 
 347   0.0000       2.877413        78.2984 
 348   0.0000       2.882197        78.4286 
 349   0.0000       2.887412        78.5705 
 350   0.0000       2.901934        78.9656 
 351   0.0000       2.907217        79.1094 
 352   0.0000       2.909681        79.1764 
 353   0.0000       2.918699        79.4218 
 354   0.0000       2.934125        79.8416 
 355   0.0000       2.939391        79.9849 
 356   0.0000       2.951029        80.3016 
 357   0.0000       2.962925        80.6253 
 358   0.0000       2.966760        80.7296 
 359   0.0000       2.972554        80.8873 
 360   0.0000       2.977455        81.0207 
 361   0.0000       2.983404        81.1826 
 362   0.0000       2.997414        81.5638 
 363   0.0000       3.005510        81.7841 
 364   0.0000       3.011997        81.9606 
 365   0.0000       3.028553        82.4111 
 366   0.0000       3.042435        82.7889 
 367   0.0000       3.059537        83.2542 
 368   0.0000       3.065965        83.4291 
 369   0.0000       3.079446        83.7960 
 370   0.0000       3.093610        84.1814 
 371   0.0000       3.100996        84.3824 
 372   0.0000       3.120457        84.9119 
 373   0.0000       3.136074        85.3369 
 374   0.0000       3.138753        85.4098 
 375   0.0000       3.146709        85.6263 
 376   0.0000       3.169328        86.2418 
 377   0.0000       3.178818        86.5000 
 378   0.0000       3.179622        86.5219 
 379   0.0000       3.204481        87.1984 
 380   0.0000       3.208491        87.3075 
 381   0.0000       3.218917        87.5912 
 382   0.0000       3.223159        87.7066 
 383   0.0000       3.230204        87.8983 
 384   0.0000       3.243063        88.2482 
 385   0.0000       3.249545        88.4246 
 386   0.0000       3.260746        88.7294 
 387   0.0000       3.262761        88.7842 
 388   0.0000       3.273085        89.0652 
 389   0.0000       3.280140        89.2572 
 390   0.0000       3.283481        89.3481 
 391   0.0000       3.293509        89.6209 
 392   0.0000       3.301711        89.8441 
 393   0.0000       3.310169        90.0743 
 394   0.0000       3.320308        90.3502 
 395   0.0000       3.325166        90.4824 
 396   0.0000       3.338905        90.8562 
 397   0.0000       3.354219        91.2729 
 398   0.0000       3.357543        91.3634 
 399   0.0000       3.361585        91.4734 
 400   0.0000       3.367850        91.6439 
 401   0.0000       3.377921        91.9179 
 402   0.0000       3.395362        92.3925 
 403   0.0000       3.397474        92.4500 
 404   0.0000       3.401553        92.5610 
 405   0.0000       3.434039        93.4449 
 406   0.0000       3.437322        93.5343 
 407   0.0000       3.442380        93.6719 
 408   0.0000       3.447243        93.8042 
 409   0.0000       3.455905        94.0400 
 410   0.0000       3.462149        94.2099 
 411   0.0000       3.469999        94.4235 
 412   0.0000       3.487551        94.9011 
 413   0.0000       3.501131        95.2706 
 414   0.0000       3.507806        95.4522 
 415   0.0000       3.520125        95.7875 
 416   0.0000       3.525353        95.9297 
 417   0.0000       3.538339        96.2831 
 418   0.0000       3.543653        96.4277 
 419   0.0000       3.551375        96.6378 
 420   0.0000       3.558490        96.8314 
 421   0.0000       3.564257        96.9884 
 422   0.0000       3.577402        97.3460 
 423   0.0000       3.580120        97.4200 
 424   0.0000       3.591841        97.7390 
 425   0.0000       3.592929        97.7686 
 426   0.0000       3.609684        98.2245 
 427   0.0000       3.616982        98.4231 
 428   0.0000       3.630100        98.7800 
 429   0.0000       3.637612        98.9845 
 430   0.0000       3.640406        99.0605 
 431   0.0000       3.656989        99.5117 
 432   0.0000       3.682339       100.2015 
 433   0.0000       3.707092       100.8751 
 434   0.0000       3.712888       101.0328 
 435   0.0000       3.724018       101.3357 
 436   0.0000       3.739496       101.7568 
 437   0.0000       3.771737       102.6342 
 438   0.0000       3.784162       102.9723 
 439   0.0000       3.810305       103.6837 
 440   0.0000       3.827880       104.1619 
 441   0.0000       3.837078       104.4122 
 442   0.0000       3.847002       104.6822 
 443   0.0000       3.866958       105.2253 
 444   0.0000       3.891238       105.8860 
 445   0.0000       3.933678       107.0408 
 446   0.0000       3.945909       107.3736 
 447   0.0000       3.964709       107.8852 
 448   0.0000       3.977398       108.2305 
 449   0.0000       3.982950       108.3816 
 450   0.0000       4.006350       109.0183 
 451   0.0000       4.028530       109.6219 
 452   0.0000       4.043067       110.0175 
 453   0.0000       4.059512       110.4649 
 454   0.0000       4.063545       110.5747 
 455   0.0000       4.080681       111.0410 
 456   0.0000       4.097166       111.4895 
 457   0.0000       4.109458       111.8240 
 458   0.0000       4.129349       112.3653 
 459   0.0000       4.149449       112.9122 
 460   0.0000       4.152279       112.9893 
 461   0.0000       4.168535       113.4316 
 462   0.0000       4.172823       113.5483 
 463   0.0000       4.188289       113.9691 
 464   0.0000       4.190066       114.0175 
 465   0.0000       4.203502       114.3831 
 466   0.0000       4.220894       114.8564 
 467   0.0000       4.231185       115.1364 
 468   0.0000       4.249429       115.6328 
 469   0.0000       4.264765       116.0502 
 470   0.0000       4.277727       116.4029 
 471   0.0000       4.280389       116.4753 
 472   0.0000       4.304298       117.1259 
 473   0.0000       4.311762       117.3290 
 474   0.0000       4.312160       117.3398 
 475   0.0000       4.323942       117.6605 
 476   0.0000       4.333654       117.9247 
 477   0.0000       4.361173       118.6735 
 478   0.0000       4.378030       119.1323 
 479   0.0000       4.387293       119.3843 
 480   0.0000       4.388824       119.4260 
 481   0.0000       4.419542       120.2619 
 482   0.0000       4.434805       120.6772 
 483   0.0000       4.446563       120.9971 
 484   0.0000       4.469026       121.6084 
 485   0.0000       4.525381       123.1419 
 486   0.0000       4.539469       123.5252 
 487   0.0000       4.567059       124.2760 
 488   0.0000       4.624938       125.8510 
 489   0.0000       4.653007       126.6148 
 490   0.0000       4.665556       126.9562 
 491   0.0000       4.682480       127.4168 
 492   0.0000       4.713618       128.2641 
 493   0.0000       4.763986       129.6346 
 494   0.0000       4.768311       129.7523 
 495   0.0000       4.802490       130.6824 
 496   0.0000       4.812622       130.9581 
 497   0.0000       4.828176       131.3814 
 498   0.0000       4.848083       131.9231 
 499   0.0000       4.861911       132.2993 
 500   0.0000       4.889332       133.0455 
 501   0.0000       4.903646       133.4350 
 502   0.0000       4.912289       133.6702 
 503   0.0000       4.930920       134.1772 
 504   0.0000       4.950359       134.7061 
 505   0.0000       4.966006       135.1319 
 506   0.0000       4.999490       136.0430 
 507   0.0000       5.007819       136.2697 
 508   0.0000       5.019880       136.5979 
 509   0.0000       5.031612       136.9171 
 510   0.0000       5.077524       138.1664 
 511   0.0000       5.143508       139.9620 
 512   0.0000       5.152614       140.2097 
 513   0.0000       5.168463       140.6410 
 514   0.0000       5.176038       140.8471 
 515   0.0000       5.185807       141.1130 
 516   0.0000       5.203097       141.5835 
 517   0.0000       5.223286       142.1328 
 518   0.0000       5.260728       143.1517 
 519   0.0000       5.304570       144.3447 
 520   0.0000       5.320161       144.7689 
 521   0.0000       5.329573       145.0250 
 522   0.0000       5.374093       146.2365 
 523   0.0000       5.391915       146.7215 
 524   0.0000       5.404814       147.0725 
 525   0.0000       5.438882       147.9995 
 526   0.0000       5.448911       148.2724 
 527   0.0000       5.459969       148.5733 
 528   0.0000       5.543384       150.8431 
 529   0.0000       5.565831       151.4539 
 530   0.0000       5.616949       152.8450 
 531   0.0000       5.624391       153.0475 
 532   0.0000       5.646926       153.6607 
 533   0.0000       5.661867       154.0672 
 534   0.0000       5.732573       155.9913 
 535   0.0000       5.738972       156.1654 
 536   0.0000       5.739641       156.1836 
 537   0.0000       5.785638       157.4352 
 538   0.0000       5.882125       160.0608 
 539   0.0000       5.903399       160.6397 
 540   0.0000       5.911708       160.8657 
 541   0.0000       6.096750       165.9010 
 542   0.0000       6.158668       167.5859 
 543   0.0000       6.192568       168.5083 
 544   0.0000       6.320630       171.9931 
 545   0.0000       6.429652       174.9597 
 546   0.0000       6.482031       176.3850 
 547   0.0000       6.625641       180.2929 
 548   0.0000       6.829481       185.8396 
 549   0.0000       6.919974       188.3021 
 550   0.0000       7.103216       193.2883 
 551   0.0000       7.396933       201.2808 
 552   0.0000      22.218907       604.6072 
 553   0.0000      22.345945       608.0641 
 554   0.0000      22.647095       616.2588 
 555   0.0000      22.676863       617.0688 
 556   0.0000      22.697605       617.6332 
 557   0.0000      22.726479       618.4189 
 558   0.0000      22.757131       619.2530 
 559   0.0000      22.843903       621.6142 
 560   0.0000      22.924628       623.8108 
 561   0.0000      22.975585       625.1975 
 562   0.0000      23.118760       629.0934 
 563   0.0000      23.416761       637.2025 
 564   0.0000      23.663673       643.9213 
 565   0.0000      32.600613       887.1078 
 566   0.0000      32.654218       888.5664 
 567   0.0000      44.068327      1199.1601 

                    ********************************
                    * MULLIKEN POPULATION ANALYSIS *
                    ********************************

-----------------------
MULLIKEN ATOMIC CHARGES
-----------------------
   0 C :   -0.149615
   1 C :   -0.183308
   2 C :   -0.278570
   3 H :    0.142536
   4 C :   -0.266893
   5 H :    0.147203
   6 C :    0.167414
   7 H :    0.145833
   8 C :    0.092521
   9 H :    0.143158
  10 N :   -0.334810
  11 N :   -0.375437
  12 C :    0.170975
  13 H :    0.274995
  14 H :    0.285965
  15 C :    0.016239
  16 H :    0.089590
  17 C :   -0.230870
  18 C :    0.262934
  19 C :   -0.186466
  20 H :    0.161197
  21 C :   -0.159384
  22 H :    0.143720
  23 C :   -0.252675
  24 H :    0.157304
  25 H :    0.149264
  26 O :   -0.512689
  27 H :    0.379869
Sum of atomic charges:   -0.0000000

--------------------------------
MULLIKEN REDUCED ORBITAL CHARGES
--------------------------------
  0 C s       :     3.185699  s :     3.185699
      pz      :     1.003272  p :     2.869268
      px      :     0.934973
      py      :     0.931023
      dz2     :     0.004349  d :     0.087386
      dxz     :     0.013496
      dyz     :     0.017911
      dx2y2   :     0.022096
      dxy     :     0.029534
      f0      :     0.001545  f :     0.007261
      f+1     :     0.000687
      f-1     :     0.000621
      f+2     :     0.001105
      f-2     :     0.000299
      f+3     :     0.001948
      f-3     :     0.001057
  1 C s       :     3.192622  s :     3.192622
      pz      :     1.021776  p :     2.897826
      px      :     0.947556
      py      :     0.928494
      dz2     :     0.004250  d :     0.085581
      dxz     :     0.009645
      dyz     :     0.020525
      dx2y2   :     0.024126
      dxy     :     0.027035
      f0      :     0.001514  f :     0.007279
      f+1     :     0.000749
      f-1     :     0.000660
      f+2     :     0.000777
      f-2     :     0.000592
      f+3     :     0.001951
      f-3     :     0.001035
  2 C s       :     3.265233  s :     3.265233
      pz      :     1.058362  p :     2.924048
      px      :     0.878548
      py      :     0.987138
      dz2     :     0.004710  d :     0.082081
      dxz     :     0.023146
      dyz     :     0.004734
      dx2y2   :     0.027821
      dxy     :     0.021670
      f0      :     0.001528  f :     0.007209
      f+1     :     0.000619
      f-1     :     0.000783
      f+2     :     0.000227
      f-2     :     0.001112
      f+3     :     0.001938
      f-3     :     0.001001
  3 H s       :     0.835505  s :     0.835505
      pz      :     0.004873  p :     0.021959
      px      :     0.010289
      py      :     0.006797
  4 C s       :     3.280813  s :     3.280813
      pz      :     1.048141  p :     2.898659
      px      :     0.872687
      py      :     0.977831
      dz2     :     0.004447  d :     0.080285
      dxz     :     0.024227
      dyz     :     0.004611
      dx2y2   :     0.027434
      dxy     :     0.019566
      f0      :     0.001506  f :     0.007136
      f+1     :     0.000629
      f-1     :     0.000771
      f+2     :     0.000182
      f-2     :     0.001176
      f+3     :     0.001802
      f-3     :     0.001069
  5 H s       :     0.830781  s :     0.830781
      pz      :     0.005085  p :     0.022016
      px      :     0.011754
      py      :     0.005177
  6 C s       :     3.025424  s :     3.025424
      pz      :     0.937756  p :     2.628504
      px      :     0.773130
      py      :     0.917618
      dz2     :     0.003692  d :     0.164170
      dxz     :     0.050266
      dyz     :     0.024414
      dx2y2   :     0.052544
      dxy     :     0.033253
      f0      :     0.002531  f :     0.014489
      f+1     :     0.001295
      f-1     :     0.000823
      f+2     :     0.002313
      f-2     :     0.001300
      f+3     :     0.004136
      f-3     :     0.002091
  7 H s       :     0.832344  s :     0.832344
      pz      :     0.005005  p :     0.021822
      px      :     0.003333
      py      :     0.013484
  8 C s       :     3.063236  s :     3.063236
      pz      :     0.954833  p :     2.671872
      px      :     0.810204
      py      :     0.906834
      dz2     :     0.005464  d :     0.158648
      dxz     :     0.046436
      dyz     :     0.024095
      dx2y2   :     0.048615
      dxy     :     0.034038
      f0      :     0.002383  f :     0.013724
      f+1     :     0.001330
      f-1     :     0.000781
      f+2     :     0.001830
      f-2     :     0.001470
      f+3     :     0.004149
      f-3     :     0.001780
  9 H s       :     0.834700  s :     0.834700
      pz      :     0.005071  p :     0.022142
      px      :     0.003511
      py      :     0.013560
 10 N s       :     3.423055  s :     3.423055
      pz      :     1.720888  p :     3.849779
      px      :     1.080329
      py      :     1.048563
      dz2     :     0.005513  d :     0.057721
      dxz     :     0.010760
      dyz     :     0.005029
      dx2y2   :     0.017936
      dxy     :     0.018483
      f0      :     0.000705  f :     0.004255
      f+1     :     0.000644
      f-1     :     0.000801
      f+2     :     0.000209
      f-2     :     0.000325
      f+3     :     0.000727
      f-3     :     0.000843
 11 N s       :     3.424954  s :     3.424954
      pz      :     1.761185  p :     3.890099
      px      :     1.081115
      py      :     1.047799
      dz2     :     0.005947  d :     0.056316
      dxz     :     0.011839
      dyz     :     0.004606
      dx2y2   :     0.016897
      dxy     :     0.017026
      f0      :     0.000596  f :     0.004068
      f+1     :     0.000677
      f-1     :     0.000837
      f+2     :     0.000138
      f-2     :     0.000434
      f+3     :     0.000681
      f-3     :     0.000705
 12 C s       :     3.107507  s :     3.107507
      pz      :     1.021603  p :     2.543054
      px      :     0.795573
      py      :     0.725879
      dz2     :     0.019912  d :     0.165821
      dxz     :     0.038776
      dyz     :     0.035623
      dx2y2   :     0.026654
      dxy     :     0.044856
      f0      :     0.001844  f :     0.012642
      f+1     :     0.001040
      f-1     :     0.001308
      f+2     :     0.000514
      f-2     :     0.002598
      f+3     :     0.002325
      f-3     :     0.003014
 13 H s       :     0.684296  s :     0.684296
      pz      :     0.012716  p :     0.040709
      px      :     0.007073
      py      :     0.020920
 14 H s       :     0.677226  s :     0.677226
      pz      :     0.013124  p :     0.036809
      px      :     0.005284
      py      :     0.018401
 15 C s       :     3.240621  s :     3.240621
      pz      :     1.013552  p :     2.608280
      px      :     0.757833
      py      :     0.836895
      dz2     :     0.006416  d :     0.126008
      dxz     :     0.029746
      dyz     :     0.020421
      dx2y2   :     0.033954
      dxy     :     0.035470
      f0      :     0.001582  f :     0.008852
      f+1     :     0.001063
      f-1     :     0.000734
      f+2     :     0.000812
      f-2     :     0.001201
      f+3     :     0.001485
[...]
      f-1     :     0.000370
      f+2     :     0.000213
      f-2     :     0.000258
      f+3     :     0.000275
      f-3     :     0.000240
 27 H s       :     0.595636  s :     0.595636
      pz      :     0.014433  p :     0.045363
      px      :     0.014628
      py      :     0.016302


                     *******************************
                     * LOEWDIN POPULATION ANALYSIS *
                     *******************************

----------------------
LOEWDIN ATOMIC CHARGES
----------------------
   0 C :   -0.173351
   1 C :   -0.174421
   2 C :   -0.140641
   3 H :    0.146169
   4 C :   -0.141465
   5 H :    0.146696
   6 C :   -0.197661
   7 H :    0.149564
   8 C :   -0.196196
   9 H :    0.149449
  10 N :    0.102589
  11 N :    0.107840
  12 C :   -0.248322
  13 H :    0.185297
  14 H :    0.189674
  15 C :   -0.122660
  16 H :    0.142438
  17 C :   -0.109811
  18 C :   -0.246147
  19 C :   -0.164262
  20 H :    0.153860
  21 C :   -0.145245
  22 H :    0.149207
  23 C :   -0.145375
  24 H :    0.151769
  25 H :    0.152355
  26 O :    0.077903
  27 H :    0.200748

-------------------------------
LOEWDIN REDUCED ORBITAL CHARGES
-------------------------------
  0 C s       :     2.761044  s :     2.761044
      pz      :     0.924410  p :     2.972962
      px      :     0.997674
      py      :     1.050879
      dz2     :     0.027841  d :     0.395816
      dxz     :     0.043650
      dyz     :     0.071333
      dx2y2   :     0.120669
      dxy     :     0.132324
      f0      :     0.003607  f :     0.043529
      f+1     :     0.002548
      f-1     :     0.004836
      f+2     :     0.005401
      f-2     :     0.005527
      f+3     :     0.014099
      f-3     :     0.007510
  1 C s       :     2.761141  s :     2.761141
      pz      :     0.930470  p :     2.974450
      px      :     1.004123
      py      :     1.039856
      dz2     :     0.041151  d :     0.395323
      dxz     :     0.043285
      dyz     :     0.060877
      dx2y2   :     0.100016
      dxy     :     0.149995
      f0      :     0.003057  f :     0.043507
      f+1     :     0.004077
      f-1     :     0.004185
      f+2     :     0.007149
      f-2     :     0.004113
      f+3     :     0.013139
      f-3     :     0.007786
  2 C s       :     2.755395  s :     2.755395
      pz      :     0.936539  p :     2.965882
      px      :     1.040745
      py      :     0.988599
      dz2     :     0.026420  d :     0.375992
      dxz     :     0.081838
      dyz     :     0.025387
      dx2y2   :     0.145631
      dxy     :     0.096716
      f0      :     0.003725  f :     0.043371
      f+1     :     0.005098
      f-1     :     0.002372
      f+2     :     0.002696
      f-2     :     0.008215
      f+3     :     0.013329
      f-3     :     0.007935
  3 H s       :     0.794718  s :     0.794718
      pz      :     0.015385  p :     0.059114
      px      :     0.029134
      py      :     0.014595
  4 C s       :     2.755307  s :     2.755307
      pz      :     0.937391  p :     2.965953
      px      :     1.043038
      py      :     0.985524
      dz2     :     0.026496  d :     0.376750
      dxz     :     0.081584
      dyz     :     0.026556
      dx2y2   :     0.142800
      dxy     :     0.099313
      f0      :     0.003631  f :     0.043456
      f+1     :     0.005168
      f-1     :     0.002412
      f+2     :     0.002643
      f-2     :     0.008325
      f+3     :     0.013280
      f-3     :     0.007997
  5 H s       :     0.794203  s :     0.794203
      pz      :     0.013891  p :     0.059101
      px      :     0.026935
      py      :     0.018276
  6 C s       :     2.690691  s :     2.690691
      pz      :     0.876521  p :     2.798643
      px      :     0.938965
      py      :     0.983157
      dz2     :     0.053118  d :     0.627508
      dxz     :     0.143221
      dyz     :     0.077928
      dx2y2   :     0.187795
      dxy     :     0.165446
      f0      :     0.006549  f :     0.080819
      f+1     :     0.007209
      f-1     :     0.005144
      f+2     :     0.012086
      f-2     :     0.010573
      f+3     :     0.026489
      f-3     :     0.012768
  7 H s       :     0.790853  s :     0.790853
      pz      :     0.015793  p :     0.059583
      px      :     0.010777
      py      :     0.033013
  8 C s       :     2.690690  s :     2.690690
      pz      :     0.869728  p :     2.799422
      px      :     0.921916
      py      :     1.007779
      dz2     :     0.057079  d :     0.625571
      dxz     :     0.132152
      dyz     :     0.073604
      dx2y2   :     0.192814
      dxy     :     0.169921
      f0      :     0.005481  f :     0.080512
      f+1     :     0.008312
      f-1     :     0.005045
      f+2     :     0.012310
      f-2     :     0.009039
      f+3     :     0.023965
      f-3     :     0.016360
  9 H s       :     0.791023  s :     0.791023
      pz      :     0.015821  p :     0.059527
      px      :     0.010797
      py      :     0.032910
 10 N s       :     2.957811  s :     2.957811
      pz      :     1.453998  p :     3.719822
      px      :     1.156381
      py      :     1.109443
      dz2     :     0.026538  d :     0.203648
      dxz     :     0.037150
      dyz     :     0.025319
      dx2y2   :     0.064388
      dxy     :     0.050253
      f0      :     0.001577  f :     0.016130
      f+1     :     0.001655
      f-1     :     0.001523
      f+2     :     0.002427
      f-2     :     0.002443
      f+3     :     0.003182
      f-3     :     0.003323
 11 N s       :     2.954506  s :     2.954506
      pz      :     1.372133  p :     3.716531
      px      :     1.163882
      py      :     1.180517
      dz2     :     0.020110  d :     0.204842
      dxz     :     0.029625
      dyz     :     0.042501
      dx2y2   :     0.055373
      dxy     :     0.057233
      f0      :     0.001424  f :     0.016280
      f+1     :     0.001532
      f-1     :     0.001732
      f+2     :     0.002100
      f-2     :     0.001610
      f+3     :     0.003173
      f-3     :     0.004709
 12 C s       :     2.731597  s :     2.731597
      pz      :     0.988110  p :     2.779690
      px      :     0.929684
      py      :     0.861896
      dz2     :     0.154932  d :     0.652529
      dxz     :     0.092169
      dyz     :     0.120220
      dx2y2   :     0.144067
      dxy     :     0.141141
      f0      :     0.007882  f :     0.084505
      f+1     :     0.008884
      f-1     :     0.009934
      f+2     :     0.011860
      f-2     :     0.014621
      f+3     :     0.013412
      f-3     :     0.017912
 13 H s       :     0.705026  s :     0.705026
      pz      :     0.036402  p :     0.109677
      px      :     0.020104
      py      :     0.053171
 14 H s       :     0.701635  s :     0.701635
      pz      :     0.050101  p :     0.108691
      px      :     0.020747
      py      :     0.037843
 15 C s       :     2.705103  s :     2.705103
      pz      :     0.908770  p :     2.876342
      px      :     0.960934
      py      :     1.006639
      dz2     :     0.060038  d :     0.485336
      dxz     :     0.085047
      dyz     :     0.071625
      dx2y2   :     0.139866
      dxy     :     0.128761
      f0      :     0.004806  f :     0.055879
      f+1     :     0.006169
      f-1     :     0.004967
      f+2     :     0.008101
      f-2     :     0.008226
      f+3     :     0.008453
      f-3     :     0.015157
 16 H s       :     0.800339  s :     0.800339
      pz      :     0.034807  p :     0.057223
      px      :     0.010659
      py      :     0.011757
 17 C s       :     2.753303  s :     2.753303
      pz      :     0.905193  p :     2.918700
      px      :     1.030663
      py      :     0.982844
      dz2     :     0.056325  d :     0.393773
      dxz     :     0.075412
      dyz     :     0.037971
      dx2y2   :     0.088182
      dxy     :     0.135882
      f0      :     0.003705  f :     0.044035
      f+1     :     0.004377
      f-1     :     0.004721
      f+2     :     0.007670
      f-2     :     0.005209
      f+3     :     0.006913
      f-3     :     0.011439
 18 C s       :     2.707320  s :     2.707320
      pz      :     0.845803  p :     2.755228
      px      :     1.026397
      py      :     0.883029
      dz2     :     0.096344  d :     0.685366
      dxz     :     0.113321
      dyz     :     0.114856
      dx2y2   :     0.165567
      dxy     :     0.195279
      f0      :     0.007570  f :     0.098233
      f+1     :     0.008786
      f-1     :     0.012954
      f+2     :     0.013133
      f-2     :     0.015698
      f+3     :     0.014464
      f-3     :     0.025629
 19 C s       :     2.759845  s :     2.759845
      pz      :     0.933151  p :     2.974491
      px      :     1.044610
      py      :     0.996730
      dz2     :     0.027422  d :     0.386171
      dxz     :     0.071062
      dyz     :     0.052524
      dx2y2   :     0.111355
      dxy     :     0.123808
      f0      :     0.003724  f :     0.043755
      f+1     :     0.005768
      f-1     :     0.002344
      f+2     :     0.006212
      f-2     :     0.005387
      f+3     :     0.006714
      f-3     :     0.013606
 20 H s       :     0.785143  s :     0.785143
      pz      :     0.013171  p :     0.060997
      px      :     0.021381
      py      :     0.026445
 21 C s       :     2.761766  s :     2.761766
      pz      :     0.914100  p :     2.940437
      px      :     0.987590
      py      :     1.038747
      dz2     :     0.051090  d :     0.398606
      dxz     :     0.039239
      dyz     :     0.080093
      dx2y2   :     0.142103
      dxy     :     0.086081
      f0      :     0.004139  f :     0.044437
      f+1     :     0.003634
      f-1     :     0.005008
      f+2     :     0.005156
      f-2     :     0.007632
      f+3     :     0.007288
      f-3     :     0.011579
 22 H s       :     0.791525  s :     0.791525
      pz      :     0.018879  p :     0.059268
      px      :     0.014488
      py      :     0.025902
 23 C s       :     2.757412  s :     2.757412
      pz      :     0.963032  p :     2.973707
      px      :     1.011157
      py      :     0.999518
      dz2     :     0.049143  d :     0.371077
      dxz     :     0.069813
      dyz     :     0.038257
      dx2y2   :     0.095034
      dxy     :     0.118830
      f0      :     0.003791  f :     0.043179
      f+1     :     0.004330
      f-1     :     0.004572
      f+2     :     0.007834
      f-2     :     0.005101
      f+3     :     0.007035
      f-3     :     0.010518
 24 H s       :     0.789652  s :     0.789652
      pz      :     0.014207  p :     0.058579
      px      :     0.033284
      py      :     0.011089
 25 H s       :     0.788130  s :     0.788130
      pz      :     0.014521  p :     0.059515
      px      :     0.018664
      py      :     0.026330
 26 O s       :     3.310727  s :     3.310727
      pz      :     1.643705  p :     4.535538
      px      :     1.557367
      py      :     1.334467
      dz2     :     0.011066  d :     0.070973
      dxz     :     0.008231
      dyz     :     0.012218
      dx2y2   :     0.011351
      dxy     :     0.028107
      f0      :     0.000415  f :     0.004858
      f+1     :     0.000414
      f-1     :     0.000850
      f+2     :     0.000618
      f-2     :     0.000623
      f+3     :     0.000771
      f-3     :     0.001167
 27 H s       :     0.645651  s :     0.645651
      pz      :     0.039675  p :     0.153600
      px      :     0.060856
      py      :     0.053069


                      *****************************
                      * MAYER POPULATION ANALYSIS *
                      *****************************

  NA   - Mulliken gross atomic population
  ZA   - Total nuclear charge
  QA   - Mulliken gross atomic charge
  VA   - Mayer's total valence
  BVA  - Mayer's bonded valence
  FA   - Mayer's free valence

  ATOM       NA         ZA         QA         VA         BVA        FA
  0 C      6.1618     6.0000    -0.1618     3.8972     3.8972     0.0000
  1 C      6.1415     6.0000    -0.1415     3.8814     3.8814    -0.0000
  2 C      6.2461     6.0000    -0.2461     3.9436     3.9436     0.0000
  3 H      0.8627     1.0000     0.1373     0.9665     0.9665    -0.0000
  4 C      6.2766     6.0000    -0.2766     3.9478     3.9478    -0.0000
  5 H      0.8569     1.0000     0.1431     0.9645     0.9645    -0.0000
  6 C      5.9054     6.0000     0.0946     3.9279     3.9279     0.0000
  7 H      0.8598     1.0000     0.1402     0.9744     0.9744    -0.0000
  8 C      5.8489     6.0000     0.1511     3.8075     3.8075    -0.0000
  9 H      0.8591     1.0000     0.1409     0.9746     0.9746    -0.0000
 10 N      7.3434     7.0000    -0.3434     3.0682     3.0682     0.0000
 11 N      7.3666     7.0000    -0.3666     3.0761     3.0761    -0.0000
 12 C      5.8679     6.0000     0.1321     3.9299     3.9299    -0.0000
 13 H      0.7416     1.0000     0.2584     0.9366     0.9366    -0.0000
 14 H      0.7408     1.0000     0.2592     0.9307     0.9307     0.0000
 15 C      5.9822     6.0000     0.0178     3.5778     3.5778    -0.0000
 16 H      0.8818     1.0000     0.1182     0.9555     0.9555    -0.0000
 17 C      6.1763     6.0000    -0.1763     3.9284     3.9284    -0.0000
 18 C      5.8027     6.0000     0.1973     4.0179     4.0179     0.0000
 19 C      6.1838     6.0000    -0.1838     3.9017     3.9017    -0.0000
 20 H      0.8520     1.0000     0.1480     1.0001     1.0001     0.0000
 21 C      6.1418     6.0000    -0.1418     3.9063     3.9063     0.0000
 22 H      0.8522     1.0000     0.1478     0.9677     0.9677     0.0000
 23 C      6.2389     6.0000    -0.2389     3.8810     3.8810    -0.0000
 24 H      0.8493     1.0000     0.1507     0.9645     0.9645    -0.0000
 25 H      0.8566     1.0000     0.1434     0.9770     0.9770    -0.0000
 26 O      8.4622     8.0000    -0.4622     2.0302     2.0302     0.0000
 27 H      0.6410     1.0000     0.3590     0.8911     0.8911     0.0000

  Mayer bond orders larger than 0.100000
B(  0-C ,  1-C ) :   1.4565 B(  0-C ,  2-C ) :   1.3615 B(  0-C ,  3-H ) :   0.9881 
B(  1-C ,  4-C ) :   1.3633 B(  1-C ,  5-H ) :   0.9864 B(  2-C ,  6-C ) :   1.3974 
B(  2-C ,  7-H ) :   0.9899 B(  4-C ,  8-C ) :   1.3936 B(  4-C ,  9-H ) :   0.9852 
B(  6-C ,  8-C ) :   1.2922 B(  6-C , 10-N ) :   1.1324 B(  8-C , 11-N ) :   1.0708 
B( 10-N , 12-C ) :   0.9956 B( 10-N , 13-H ) :   0.9024 B( 11-N , 12-C ) :   1.0166 
B( 11-N , 14-H ) :   0.9093 B( 12-C , 15-C ) :   0.8911 B( 12-C , 16-H ) :   0.9959 
B( 15-C , 17-C ) :   1.3904 B( 15-C , 18-C ) :   1.3785 B( 17-C , 19-C ) :   1.4089 
B( 17-C , 20-H ) :   0.9580 B( 18-C , 23-C ) :   1.4160 B( 18-C , 26-O ) :   1.1243 
B( 19-C , 21-C ) :   1.4093 B( 19-C , 22-H ) :   0.9856 B( 21-C , 23-C ) :   1.3906 
B( 21-C , 24-H ) :   0.9760 B( 23-C , 25-H ) :   0.9685 B( 26-O , 27-H ) :   0.8586 


-------
TIMINGS
-------

Total SCF time: 0 days 0 hours 6 min 49 sec 

Total time                  ....     409.498 sec
Sum of individual times     ....     408.860 sec  ( 99.8%)

Fock matrix formation       ....     406.958 sec  ( 99.4%)
  XC integration            ....       3.582 sec  (  0.9% of F)
    Basis function eval.    ....       0.721 sec  ( 20.1% of XC)
    Density eval.           ....       0.882 sec  ( 24.6% of XC)
    XC-Functional eval.     ....       0.316 sec  (  8.8% of XC)
    XC-Potential eval.      ....       1.372 sec  ( 38.3% of XC)
Diagonalization             ....       0.066 sec  (  0.0%)
Density matrix formation    ....       0.020 sec  (  0.0%)
Population analysis         ....       0.051 sec  (  0.0%)
Initial guess               ....       0.088 sec  (  0.0%)
Orbital Transformation      ....       0.000 sec  (  0.0%)
Orbital Orthonormalization  ....       0.069 sec  (  0.0%)
DIIS solution               ....       0.018 sec  (  0.0%)
SOSCF solution              ....       0.236 sec  (  0.1%)
Grid generation             ....       1.423 sec  (  0.3%)


-------------------------------------------------------------------------------
                          DFT DISPERSION CORRECTION                            
                                                                               
                              DFTD3 V3.1  Rev 1                                
                              USING zero damping                               
-------------------------------------------------------------------------------
The omegaB97X-D3 functional is recognized. Fit by Chai et al.
Active option DFTDOPT                   ...         3   

molecular C6(AA) [au] = 9253.980311 


            DFT-D V3
 parameters
 s6 scaling factor         :     1.0000 
 rs6 scaling factor        :     1.2810 
 s8 scaling factor         :     1.0000 
 rs8 scaling factor        :     1.0940 
 Damping factor alpha6     :    14.0000 
 Damping factor alpha8     :    16.0000 
 ad hoc parameters k1-k3   :    16.0000     1.3333    -4.0000 

 Edisp/kcal,au: -6.790221944938  -0.010820906299 
 E6   /kcal   :  -3.061520043 
 E8   /kcal   :  -3.728701902 
 % E8         :  54.912813334 

-------------------------   ----------------
Dispersion correction           -0.010820906
-------------------------   ----------------


-------------------------   --------------------
FINAL SINGLE POINT ENERGY      -687.397965037345
-------------------------   --------------------

                                *** OPTIMIZATION RUN DONE ***

                            ***************************************
                            *     ORCA property calculations      *
                            ***************************************

                                    ---------------------
                                    Active property flags
                                    ---------------------
   (+) Dipole Moment


------------------------------------------------------------------------------
                       ORCA ELECTRIC PROPERTIES CALCULATION
------------------------------------------------------------------------------

Dipole Moment Calculation                       ... on
Quadrupole Moment Calculation                   ... off
Polarizability Calculation                      ... off
GBWName                                         ... o-MeO-DMBI.gbw
Electron density file                           ... o-MeO-DMBI.scfp
The origin for moment calculation is the CENTER OF MASS  = (-22.000305, -3.448490  0.022077)

-------------
DIPOLE MOMENT
-------------
                                X             Y             Z
Electronic contribution:      1.21735       1.33170       0.85852
Nuclear contribution   :      0.00365      -0.68208       0.11181
                        -----------------------------------------
Total Dipole Moment    :      1.22101       0.64962       0.97033
                        -----------------------------------------
Magnitude (a.u.)       :      1.68950
Magnitude (Debye)      :      4.29437



--------------------
Rotational spectrum 
--------------------
 
Rotational constants in cm-1:     0.051247     0.009723     0.008666 
Rotational constants in MHz :  1536.359865   291.497376   259.814574 

 Dipole components along the rotational axes: 
x,y,z [a.u.] :     1.308423     0.666415     0.835661 
x,y,z [Debye]:     3.325747     1.693892     2.124082 

 

Timings for individual modules:

Sum of individual times         ...    33967.895 sec (= 566.132 min)
GTO integral calculation        ...       55.877 sec (=   0.931 min)   0.2 %
SCF iterations                  ...    21596.431 sec (= 359.941 min)  63.6 %
SCF Gradient evaluation         ...    12304.162 sec (= 205.069 min)  36.2 %
Geometry relaxation             ...       11.426 sec (=   0.190 min)   0.0 %
                             ****ORCA TERMINATED NORMALLY****
TOTAL RUN TIME: 0 days 9 hours 26 minutes 14 seconds 11 msec
