Warning: no access to tty (Bad file descriptor).
Thus no job control in this shell.

                                 *****************
                                 * O   R   C   A *
                                 *****************

           --- An Ab Initio, DFT and Semiempirical electronic structure package ---

                  #######################################################
                  #                        -***-                        #
                  #          Department of theory and spectroscopy      #
                  #               Directorship: Frank Neese             #
                  #        Max Planck Institute fuer Kohlenforschung    #
                  #                Kaiser Wilhelm Platz 1               #
                  #                 D-45470 Muelheim/Ruhr               #
                  #                      Germany                        #
                  #                                                     #
                  #                  All rights reserved                #
                  #                        -***-                        #
                  #######################################################


                         Program Version 4.2.1 -  RELEASE  -


 With contributions from (in alphabetic order):
   Daniel Aravena         : Magnetic Suceptibility
   Michael Atanasov       : Ab Initio Ligand Field Theory (pilot matlab implementation)
   Alexander A. Auer      : GIAO ZORA, VPT2
   Ute Becker             : Parallelization
   Giovanni Bistoni       : ED, misc. LED, open-shell LED, HFLD
   Martin Brehm           : Molecular dynamics
   Dmytro Bykov           : SCF Hessian
   Vijay G. Chilkuri      : MRCI spin determinant printing, contributions to CSF-ICE
   Dipayan Datta          : RHF DLPNO-CCSD density
   Achintya Kumar Dutta   : EOM-CC, STEOM-CC
   Dmitry Ganyushin       : Spin-Orbit,Spin-Spin,Magnetic field MRCI
   Miquel Garcia          : C-PCM Hessian, Gaussian charge scheme
   Yang Guo               : DLPNO-NEVPT2, CIM, IAO-localization
   Andreas Hansen         : Spin unrestricted coupled pair/coupled cluster methods
   Benjamin Helmich-Paris : CASSCF linear response (MC-RPA)
   Lee Huntington         : MR-EOM, pCC
   Robert Izsak           : Overlap fitted RIJCOSX, COSX-SCS-MP3, EOM
   Christian Kollmar      : KDIIS, OOCD, Brueckner-CCSD(T), CCSD density
   Simone Kossmann        : Meta GGA functionals, TD-DFT gradient, OOMP2, MP2 Hessian
   Martin Krupicka        : AUTO-CI
   Lucas Lang             : DCDCAS
   Dagmar Lenk            : GEPOL surface, SMD
   Dimitrios Liakos       : Extrapolation schemes; Compound Job, initial MDCI parallelization
   Dimitrios Manganas     : Further ROCIS development; embedding schemes
   Dimitrios Pantazis     : SARC Basis sets
   Taras Petrenko         : DFT Hessian,TD-DFT gradient, ASA, ECA, R-Raman, ABS, FL, XAS/XES, NRVS
   Peter Pinski           : DLPNO-MP2, DLPNO-MP2 Gradient
   Christoph Reimann      : Effective Core Potentials
   Marius Retegan         : Local ZFS, SOC
   Christoph Riplinger    : Optimizer, TS searches, QM/MM, DLPNO-CCSD(T), (RO)-DLPNO pert. Triples
   Tobias Risthaus        : Range-separated hybrids, TD-DFT gradient, RPA, STAB
   Michael Roemelt        : Original ROCIS implementation
   Masaaki Saitow         : Open-shell DLPNO-CCSD energy and density
   Barbara Sandhoefer     : DKH picture change effects
   Avijit Sen             : IP-ROCIS
   Kantharuban Sivalingam : CASSCF convergence, NEVPT2, FIC-MRCI
   Bernardo de Souza      : ESD, SOC TD-DFT
   Georgi Stoychev        : AutoAux, RI-MP2 NMR
   Willem Van den Heuvel  : Paramagnetic NMR
   Boris Wezisla          : Elementary symmetry handling
   Frank Wennmohs         : Technical directorship


 We gratefully acknowledge several colleagues who have allowed us to
 interface, adapt or use parts of their codes:
   Stefan Grimme, W. Hujo, H. Kruse,             : VdW corrections, initial TS optimization,
                  C. Bannwarth                     DFT functionals, gCP, sTDA/sTD-DF
   Ed Valeev, F. Pavosevic, A. Kumar             : LibInt (2-el integral package), F12 methods
   Garnet Chan, S. Sharma, J. Yang, R. Olivares  : DMRG
   Ulf Ekstrom                                   : XCFun DFT Library
   Mihaly Kallay                                 : mrcc  (arbitrary order and MRCC methods)
   Andreas Klamt, Michael Diedenhofen            : otool_cosmo (COSMO solvation model)
   Jiri Pittner, Ondrej Demel                    : Mk-CCSD
   Frank Weinhold                                : gennbo (NPA and NBO analysis)
   Christopher J. Cramer and Donald G. Truhlar   : smd solvation model
   Lars Goerigk                                  : TD-DFT with DH, B97 family of functionals
   V. Asgeirsson, H. Jonsson                     : NEB implementation
   FAccTs GmbH                                   : IRC, NEB, NEB-TS, Multilevel, MM, QM/MM, CI optimization
   S Lehtola, MJT Oliveira, MAL Marques          : LibXC Library


 Your calculation uses the libint2 library for the computation of 2-el integrals
 For citations please refer to: http://libint.valeyev.net

 Your ORCA version has been built with support for libXC version: 4.2.3
 For citations please refer to: https://tddft.org/programs/libxc/

 This ORCA versions uses:
   CBLAS   interface :  Fast vector & matrix operations
   LAPACKE interface :  Fast linear algebra routines
   SCALAPACK package :  Parallel linear algebra routines


Your calculation utilizes the atom-pairwise dispersion correction
with the zero-damping scheme (D30)
Cite in your paper:
S.Grimme, J.Antony, S.Ehrlich and H.Krieg, J.Chem.Phys., 132, (2010), 154104 
   

XCFun DFT library Copyright 2009-2010 Ulf Ekstrom and contributors.
See http://admol.org/xcfun for more information. This is free soft-
ware; see the source code for copying conditions. There is ABSOLUTELY
NO WARRANTY; not even for MERCHANTABILITY or FITNESS FOR A PARTICULAR
PURPOSE. For details see the documentation. Scientific users of this 
library should cite U. Ekstrom, L. Visscher, R. Bast, A. J. Thorvald-
sen and K. Ruud; J.Chem.Theor.Comp. 2010, DOI: 10.1021/ct100117s
XCFun Version 0.99 
----- Orbital basis set information -----
Your calculation utilizes the basis: def2-TZVP
   F. Weigend and R. Ahlrichs, Phys. Chem. Chem. Phys. 7, 3297 (2005).

----- AuxJ basis set information -----
Your calculation utilizes the auxiliary basis: def2/J
   F. Weigend, Phys. Chem. Chem. Phys. 8, 1057 (2006).

================================================================================
                                        WARNINGS
                       Please study these warnings very carefully!
================================================================================


WARNING: Geometry Optimization
  ===> : Switching off AutoStart
         For restart on a previous wavefunction, please use MOREAD

INFO   : the flag for use of LIBINT has been found!

================================================================================
                                       INPUT FILE
================================================================================
NAME = BV.inp
|  1> # avogadro generated ORCA input file 
|  2> # Basic Mode
|  3> # 
|  4> ! wB97X-D3 OPT def2-TZVP def2/J CPCM
|  5> %cpcm
|  6>   epsilon 3
|  7> end
|  8> %pal
|  9>  nprocs 4
| 10> end
| 11> 
| 12> * xyz 0 1
| 13>    C        3.71140        3.24849        0.90570
| 14>    C        3.98181        1.89175        0.71824
| 15>    C        2.42144        3.73773        0.69364
| 16>    H        4.50070        3.91993        1.21818
| 17>    C        2.96477        1.02055        0.31514
| 18>    H        4.98153        1.51302        0.88797
| 19>    C        1.40072        2.87152        0.29127
| 20>    H        2.21127        4.78913        0.84173
| 21>    C        1.65747        1.50356        0.09127
| 22>    H        3.21276       -0.02349        0.19114
| 23>    H        0.40553        3.26893        0.13234
| 24>    C        0.50129        0.61990       -0.34037
| 25>    N        0.88262       -0.77647       -0.61349
| 26>    H        0.03629        1.03952       -1.25955
| 27>    H       -0.26214        0.66981        0.46769
| 28>    C        1.69554       -1.06467       -1.66868
| 29>    C        0.40350       -1.78339        0.16823
| 30>    C        2.06171       -2.38065       -1.95715
| 31>    H        2.07077       -0.26720       -2.30034
| 32>    C        0.74446       -3.11406       -0.08412
| 33>    H       -0.25046       -1.56634        1.00495
| 34>    C        1.59671       -3.46789       -1.16676
| 35>    H        2.70835       -2.49092       -2.80874
| 36>    H        0.31367       -3.82525        0.59720
| 37>    C        1.94823       -4.78149       -1.43418
| 38>    C        2.79881       -5.13515       -2.51791
| 39>    C        1.48175       -5.86927       -0.64503
| 40>    C        3.14076       -6.46539       -2.76817
| 41>    H        3.22586       -4.42483       -3.20245
| 42>    C        1.84920       -7.18588       -0.93162
| 43>    H        0.83112       -5.75892        0.20354
| 44>    N        2.67431       -7.47193       -1.97656
| 45>    H        3.78933       -6.68937       -3.60778
| 46>    H        1.46565       -7.97936       -0.30062
| 47>    C        3.04021       -8.86790       -2.27191
| 48>    C        4.51477       -9.17401       -2.08249
| 49>    H        2.74682       -9.08962       -3.32165
| 50>    H        2.47810       -9.57035       -1.61701
| 51>    C        5.44352       -8.24242       -1.57063
| 52>    C        4.96839      -10.46070       -2.42291
| 53>    C        6.31367      -10.80734       -2.26746
| 54>    H        4.27679      -11.19776       -2.81280
| 55>    C        6.78806       -8.59507       -1.41668
| 56>    H        5.14545       -7.24587       -1.27919
| 57>    C        7.22316       -9.87480       -1.76595
| 58>    H        6.65059      -11.80038       -2.53558
| 59>    H        7.49366       -7.87466       -1.02319
| 60>    H        8.26434      -10.14463       -1.64510
| 61> *
| 62> 
| 63> 
| 64>                          ****END OF INPUT****
================================================================================

                       *****************************
                       * Geometry Optimization Run *
                       *****************************

Geometry optimization settings:
Update method            Update   .... BFGS
Choice of coordinates    CoordSys .... Z-matrix Internals
Initial Hessian          InHess   .... Almoef's Model

Convergence Tolerances:
Energy Change            TolE     ....  5.0000e-06 Eh
Max. Gradient            TolMAXG  ....  3.0000e-04 Eh/bohr
RMS Gradient             TolRMSG  ....  1.0000e-04 Eh/bohr
Max. Displacement        TolMAXD  ....  4.0000e-03 bohr
RMS Displacement         TolRMSD  ....  2.0000e-03 bohr
Strict Convergence                ....  False
------------------------------------------------------------------------------
                        ORCA OPTIMIZATION COORDINATE SETUP
------------------------------------------------------------------------------

The optimization will be done in new redundant internal coordinates
Making redundant internal coordinates   ...  (new redundants) done
Evaluating the initial hessian          ...  (Almloef) done
Evaluating the coordinates              ...  done
Calculating the B-matrix                .... done
Calculating the G-matrix                .... done
Diagonalizing the G-matrix              .... done
Small eigenvalue found = 1.150e-03
Small eigenvalue found = 3.379e-03
Small eigenvalue found = 3.804e-03
Small eigenvalue found = 9.518e-03
Small eigenvalue found = 1.713e-02
Small eigenvalue found = 1.763e-02
Small eigenvalue found = 2.547e-02
The first mode is                       ....  121
The number of degrees of freedom        ....  138

    -----------------------------------------------------------------
                    Redundant Internal Coordinates


    -----------------------------------------------------------------
         Definition                    Initial Value    Approx d2E/dq
    -----------------------------------------------------------------
      1. B(C   1,C   0)                  1.3961         0.611023   
      2. B(C   2,C   0)                  1.3958         0.611573   
      3. B(H   3,C   0)                  1.0823         0.370371   
      4. B(C   4,C   1)                  1.3985         0.605551   
      5. B(H   5,C   1)                  1.0824         0.370236   
      6. B(C   6,C   2)                  1.3979         0.606951   
      7. B(H   7,C   2)                  1.0824         0.370324   
      8. B(C   8,C   6)                  1.4061         0.588823   
      9. B(C   8,C   4)                  1.4115         0.577258   
     10. B(H   9,C   4)                  1.0802         0.373261   
     11. B(H  10,C   6)                  1.0833         0.369037   
     12. B(C  11,C   8)                  1.5179         0.390602   
     13. B(N  12,C  11)                  1.4730         0.412463   
     14. B(H  13,C  11)                  1.1123         0.331783   
     15. B(H  14,C  11)                  1.1128         0.331193   
     16. B(C  15,N  12)                  1.3628         0.618319   
     17. B(C  16,N  12)                  1.3618         0.620653   
     18. B(C  17,C  15)                  1.3961         0.610948   
     19. B(H  18,C  15)                  1.0843         0.367693   
     20. B(C  19,C  16)                  1.3966         0.609729   
     21. B(H  20,C  16)                  1.0839         0.368238   
     22. B(C  21,C  19)                  1.4225         0.554389   
     23. B(C  21,C  17)                  1.4223         0.554821   
     24. B(H  22,C  17)                  1.0749         0.380576   
     25. B(H  23,C  19)                  1.0750         0.380537   
     26. B(C  24,C  21)                  1.3859         0.634357   
     27. B(C  25,C  24)                  1.4223         0.554821   
     28. B(C  26,C  24)                  1.4225         0.554395   
     29. B(C  27,C  25)                  1.3961         0.610949   
     30. B(H  28,C  25)                  1.0750         0.380567   
     31. B(C  29,C  26)                  1.3966         0.609731   
     32. B(H  30,C  26)                  1.0750         0.380537   
     33. B(N  31,C  29)                  1.3618         0.620652   
     34. B(N  31,C  27)                  1.3628         0.618302   
     35. B(H  32,C  27)                  1.0843         0.367690   
     36. B(H  33,C  29)                  1.0839         0.368234   
     37. B(C  34,N  31)                  1.4730         0.412468   
     38. B(C  35,C  34)                  1.5179         0.390607   
     39. B(H  36,C  34)                  1.1123         0.331787   
     40. B(H  37,C  34)                  1.1128         0.331181   
     41. B(C  38,C  35)                  1.4115         0.577268   
     42. B(C  39,C  35)                  1.4061         0.588829   
     43. B(C  40,C  39)                  1.3979         0.606942   
     44. B(H  41,C  39)                  1.0833         0.369046   
     45. B(C  42,C  38)                  1.3985         0.605550   
     46. B(H  43,C  38)                  1.0802         0.373260   
     47. B(C  44,C  42)                  1.3961         0.611019   
     48. B(C  44,C  40)                  1.3958         0.611578   
     49. B(H  45,C  40)                  1.0824         0.370332   
     50. B(H  46,C  42)                  1.0824         0.370229   
     51. B(H  47,C  44)                  1.0823         0.370372   
     52. A(C   2,C   0,H   3)          120.0243         0.353773   
     53. A(C   1,C   0,C   2)          119.9492         0.431865   
     54. A(C   1,C   0,H   3)          120.0262         0.353719   
     55. A(C   0,C   1,C   4)          120.2146         0.431098   
     56. A(C   4,C   1,H   5)          119.9264         0.353159   
     57. A(C   0,C   1,H   5)          119.8588         0.353697   
     58. A(C   0,C   2,H   7)          119.9426         0.353765   
     59. A(C   0,C   2,C   6)          120.0891         0.431347   
     60. A(C   6,C   2,H   7)          119.9682         0.353311   
     61. A(C   8,C   4,H   9)          121.6773         0.350795   
     62. A(C   1,C   4,H   9)          117.9183         0.353645   
     63. A(C   1,C   4,C   8)          120.4026         0.426725   
     64. A(C   2,C   6,H  10)          119.0579         0.353103   
     65. A(C   2,C   6,C   8)          120.6935         0.428422   
     66. A(C   8,C   6,H  10)          120.2485         0.351296   
     67. A(C   4,C   8,C   6)          118.6491         0.424590   
     68. A(C   6,C   8,C  11)          117.8870         0.396195   
     69. A(C   4,C   8,C  11)          123.4598         0.394819   
     70. A(H  13,C  11,H  14)          107.2390         0.283415   
     71. A(N  12,C  11,H  14)          110.7786         0.323195   
     72. A(C   8,C  11,H  14)          106.8559         0.322245   
     73. A(N  12,C  11,H  13)          108.2173         0.323289   
     74. A(C   8,C  11,H  13)          109.5002         0.322339   
     75. A(C   8,C  11,N  12)          114.0422         0.370083   
     76. A(C  15,N  12,C  16)          119.8643         0.428283   
     77. A(C  11,N  12,C  16)          120.2253         0.398575   
     78. A(C  11,N  12,C  15)          119.8966         0.398311   
     79. A(C  17,C  15,H  18)          118.8239         0.353277   
     80. A(N  12,C  15,H  18)          120.1275         0.351815   
     81. A(N  12,C  15,C  17)          121.0486         0.429880   
     82. A(N  12,C  16,C  19)          120.9882         0.430016   
     83. A(C  19,C  16,H  20)          118.5257         0.353246   
     84. A(N  12,C  16,H  20)          120.4857         0.352127   
     85. A(C  21,C  17,H  22)          123.9511         0.349599   
     86. A(C  15,C  17,H  22)          114.7187         0.355345   
     87. A(C  15,C  17,C  21)          121.3302         0.424381   
     88. A(C  21,C  19,H  23)          123.9100         0.349547   
     89. A(C  16,C  19,H  23)          114.7075         0.355219   
     90. A(C  16,C  19,C  21)          121.3825         0.424170   
     91. A(C  19,C  21,C  24)          122.3152         0.427188   
     92. A(C  17,C  21,C  24)          122.3027         0.427247   
     93. A(C  17,C  21,C  19)          115.3820         0.417087   
     94. A(C  25,C  24,C  26)          115.3819         0.417088   
     95. A(C  21,C  24,C  26)          122.3153         0.427188   
     96. A(C  21,C  24,C  25)          122.3027         0.427247   
     97. A(C  27,C  25,H  28)          114.7186         0.355344   
     98. A(C  24,C  25,H  28)          123.9509         0.349597   
     99. A(C  24,C  25,C  27)          121.3305         0.424381   
    100. A(C  29,C  26,H  30)          114.7078         0.355219   
    101. A(C  24,C  26,H  30)          123.9098         0.349547   
    102. A(C  24,C  26,C  29)          121.3823         0.424171   
    103. A(N  31,C  27,H  32)          120.1274         0.351813   
    104. A(C  25,C  27,H  32)          118.8240         0.353277   
    105. A(C  25,C  27,N  31)          121.0486         0.429878   
    106. A(N  31,C  29,H  33)          120.4855         0.352127   
    107. A(C  26,C  29,H  33)          118.5251         0.353246   
    108. A(C  26,C  29,N  31)          120.9890         0.430016   
    109. A(C  29,N  31,C  34)          120.2261         0.398576   
    110. A(C  27,N  31,C  34)          119.8966         0.398310   
    111. A(C  27,N  31,C  29)          119.8635         0.428281   
    112. A(C  35,C  34,H  36)          109.5009         0.322340   
    113. A(N  31,C  34,H  36)          108.2169         0.323290   
    114. A(N  31,C  34,C  35)          114.0422         0.370084   
    115. A(H  36,C  34,H  37)          107.2387         0.283414   
    116. A(C  35,C  34,H  37)          106.8565         0.322244   
    117. A(N  31,C  34,H  37)          110.7781         0.323193   
    118. A(C  38,C  35,C  39)          118.6493         0.424592   
    119. A(C  34,C  35,C  39)          117.8867         0.396197   
    120. A(C  34,C  35,C  38)          123.4599         0.394821   
    121. A(C  42,C  38,H  43)          117.9181         0.353645   
    122. A(C  35,C  38,H  43)          121.6775         0.350796   
    123. A(C  35,C  38,C  42)          120.4026         0.426726   
    124. A(C  40,C  39,H  41)          119.0576         0.353103   
    125. A(C  35,C  39,H  41)          120.2488         0.351298   
    126. A(C  35,C  39,C  40)          120.6935         0.428421   
    127. A(C  44,C  40,H  45)          119.9426         0.353767   
    128. A(C  39,C  40,H  45)          119.9685         0.353311   
    129. A(C  39,C  40,C  44)          120.0889         0.431346   
    130. A(C  44,C  42,H  46)          119.8587         0.353695   
    131. A(C  38,C  42,H  46)          119.9266         0.353157   
    132. A(C  38,C  42,C  44)          120.2145         0.431097   
    133. A(C  42,C  44,H  47)          120.0264         0.353719   
    134. A(C  40,C  44,H  47)          120.0238         0.353773   
    135. A(C  40,C  44,C  42)          119.9495         0.431865   
    136. D(C   4,C   1,C   0,C   2)      0.1583         0.025790   
    137. D(H   5,C   1,C   0,H   3)      0.1219         0.025790   
    138. D(H   5,C   1,C   0,C   2)   -179.6898         0.025790   
    139. D(C   4,C   1,C   0,H   3)    179.9701         0.025790   
    140. D(C   6,C   2,C   0,C   1)     -0.1277         0.025839   
    141. D(H   7,C   2,C   0,C   1)    179.8265         0.025839   
    142. D(H   7,C   2,C   0,H   3)      0.0148         0.025839   
    143. D(C   6,C   2,C   0,H   3)   -179.9395         0.025839   
    144. D(C   8,C   4,C   1,C   0)      0.1373         0.025304   
    145. D(H   9,C   4,C   1,C   0)   -179.3805         0.025304   
    146. D(C   8,C   4,C   1,H   5)    179.9853         0.025304   
    147. D(H   9,C   4,C   1,H   5)      0.4676         0.025304   
    148. D(C   8,C   6,C   2,H   7)    179.8457         0.025428   
    149. D(H  10,C   6,C   2,C   0)    179.9458         0.025428   
    150. D(C   8,C   6,C   2,C   0)     -0.2001         0.025428   
    151. D(H  10,C   6,C   2,H   7)     -0.0084         0.025428   
    152. D(C  11,C   8,C   6,H  10)     -0.3770         0.023855   
    153. D(C  11,C   8,C   6,C   2)    179.7706         0.023855   
    154. D(C   4,C   8,C   6,H  10)   -179.6608         0.023855   
    155. D(C   4,C   8,C   6,C   2)      0.4868         0.023855   
    156. D(C  11,C   8,C   4,H   9)     -0.1969         0.022884   
    157. D(C  11,C   8,C   4,C   1)   -179.6962         0.022884   
    158. D(C   6,C   8,C   4,H   9)    179.0443         0.022884   
    159. D(C   6,C   8,C   4,C   1)     -0.4550         0.022884   
    160. D(H  14,C  11,C   8,C   6)    -61.1770         0.011349   
    161. D(H  14,C  11,C   8,C   4)    118.0697         0.011349   
    162. D(H  13,C  11,C   8,C   6)     54.6592         0.011349   
    163. D(H  13,C  11,C   8,C   4)   -126.0942         0.011349   
    164. D(N  12,C  11,C   8,C   6)    176.0671         0.011349   
    165. D(N  12,C  11,C   8,C   4)     -4.6863         0.011349   
    166. D(C  15,N  12,C  11,C   8)    -66.6234         0.014511   
    167. D(C  16,N  12,C  11,H  14)     -5.8581         0.014511   
    168. D(C  16,N  12,C  11,H  13)   -123.1537         0.014511   
    169. D(C  16,N  12,C  11,C   8)    114.7306         0.014511   
    170. D(C  15,N  12,C  11,H  14)    172.7879         0.014511   
    171. D(C  15,N  12,C  11,H  13)     55.4924         0.014511   
    172. D(H  18,C  15,N  12,C  16)    179.3377         0.030945   
    173. D(H  18,C  15,N  12,C  11)      0.6868         0.030945   
    174. D(C  17,C  15,N  12,C  16)     -0.7330         0.030945   
    175. D(C  17,C  15,N  12,C  11)   -179.3839         0.030945   
    176. D(H  20,C  16,N  12,C  15)   -179.4843         0.031197   
    177. D(H  20,C  16,N  12,C  11)     -0.8378         0.031197   
    178. D(C  19,C  16,N  12,C  15)      0.7376         0.031197   
    179. D(C  19,C  16,N  12,C  11)    179.3840         0.031197   
    180. D(H  22,C  17,C  15,H  18)      0.1560         0.025783   
    181. D(C  21,C  17,C  15,H  18)   -179.7796         0.025783   
    182. D(H  22,C  17,C  15,N  12)   -179.7742         0.025783   
    183. D(C  21,C  17,C  15,N  12)      0.2902         0.025783   
    184. D(H  23,C  19,C  16,H  20)     -0.0394         0.025675   
    185. D(H  23,C  19,C  16,N  12)    179.7430         0.025675   
    186. D(C  21,C  19,C  16,H  20)    179.9171         0.025675   
    187. D(C  21,C  19,C  16,N  12)     -0.3004         0.025675   
    188. D(C  24,C  21,C  19,H  23)     -0.0945         0.021037   
    189. D(C  17,C  21,C  19,H  23)    179.8181         0.021037   
    190. D(C  17,C  21,C  19,C  16)     -0.1343         0.021037   
    191. D(C  24,C  21,C  17,H  22)      0.1224         0.021071   
    192. D(C  24,C  21,C  17,C  15)   -179.9481         0.021071   
    193. D(C  24,C  21,C  19,C  16)    179.9530         0.021037   
    194. D(C  19,C  21,C  17,H  22)   -179.7902         0.021071   
    195. D(C  19,C  21,C  17,C  15)      0.1392         0.021071   
    196. D(C  26,C  24,C  21,C  17)   -179.9061         0.027926   
    197. D(C  25,C  24,C  21,C  19)    179.9063         0.027926   
    198. D(C  25,C  24,C  21,C  17)     -0.0003         0.027926   
    199. D(C  26,C  24,C  21,C  19)      0.0005         0.027926   
    200. D(H  28,C  25,C  24,C  26)    179.7897         0.021071   
    201. D(H  28,C  25,C  24,C  21)     -0.1222         0.021071   
    202. D(C  27,C  25,C  24,C  26)     -0.1391         0.021071   
    203. D(C  27,C  25,C  24,C  21)    179.9490         0.021071   
    204. D(H  30,C  26,C  24,C  25)   -179.8182         0.021038   
    205. D(H  30,C  26,C  24,C  21)      0.0937         0.021038   
    206. D(C  29,C  26,C  24,C  25)      0.1346         0.021038   
    207. D(C  29,C  26,C  24,C  21)   -179.9535         0.021038   
    208. D(H  32,C  27,C  25,H  28)     -0.1553         0.025783   
    209. D(H  32,C  27,C  25,C  24)    179.7797         0.025783   
    210. D(N  31,C  27,C  25,H  28)    179.7744         0.025783   
    211. D(N  31,C  27,C  25,C  24)     -0.2907         0.025783   
    212. D(H  33,C  29,C  26,H  30)      0.0396         0.025675   
    213. D(H  33,C  29,C  26,C  24)   -179.9173         0.025675   
    214. D(N  31,C  29,C  26,H  30)   -179.7430         0.025675   
    215. D(N  31,C  29,C  26,C  24)      0.3001         0.025675   
    216. D(C  34,N  31,C  29,H  33)      0.8375         0.031197   
    217. D(C  34,N  31,C  29,C  26)   -179.3841         0.031197   
    218. D(C  27,N  31,C  29,H  33)    179.4840         0.031197   
    219. D(C  27,N  31,C  29,C  26)     -0.7376         0.031197   
    220. D(C  34,N  31,C  27,H  32)     -0.6868         0.030943   
    221. D(C  34,N  31,C  27,C  25)    179.3844         0.030943   
    222. D(C  29,N  31,C  27,H  32)   -179.3379         0.030943   
    223. D(C  29,N  31,C  27,C  25)      0.7334         0.030943   
    224. D(H  37,C  34,N  31,C  29)      5.8585         0.014511   
    225. D(H  37,C  34,N  31,C  27)   -172.7876         0.014511   
    226. D(H  36,C  34,N  31,C  29)    123.1531         0.014511   
    227. D(H  36,C  34,N  31,C  27)    -55.4930         0.014511   
    228. D(C  35,C  34,N  31,C  29)   -114.7306         0.014511   
    229. D(C  35,C  34,N  31,C  27)     66.6233         0.014511   
    230. D(C  39,C  35,C  34,H  37)     61.1763         0.011349   
    231. D(C  39,C  35,C  34,H  36)    -54.6602         0.011349   
    232. D(C  39,C  35,C  34,N  31)   -176.0681         0.011349   
    233. D(C  38,C  35,C  34,H  37)   -118.0691         0.011349   
    234. D(C  38,C  35,C  34,H  36)    126.0945         0.011349   
    235. D(C  38,C  35,C  34,N  31)      4.6866         0.011349   
    236. D(H  43,C  38,C  35,C  39)   -179.0427         0.022885   
    237. D(H  43,C  38,C  35,C  34)      0.1972         0.022885   
    238. D(C  42,C  38,C  35,C  39)      0.4559         0.022885   
    239. D(C  42,C  38,C  35,C  34)    179.6958         0.022885   
    240. D(H  41,C  39,C  35,C  38)    179.6609         0.023856   
    241. D(H  41,C  39,C  35,C  34)      0.3783         0.023856   
    242. D(C  40,C  39,C  35,C  38)     -0.4882         0.023856   
    243. D(C  40,C  39,C  35,C  34)   -179.7707         0.023856   
    244. D(H  45,C  40,C  39,H  41)      0.0079         0.025427   
    245. D(H  45,C  40,C  39,C  35)   -179.8448         0.025427   
    246. D(C  44,C  40,C  39,H  41)   -179.9460         0.025427   
    247. D(C  44,C  40,C  39,C  35)      0.2014         0.025427   
    248. D(H  46,C  42,C  38,H  43)     -0.4689         0.025304   
    249. D(H  46,C  42,C  38,C  35)   -179.9859         0.025304   
    250. D(C  44,C  42,C  38,H  43)    179.3793         0.025304   
    251. D(C  44,C  42,C  38,C  35)     -0.1377         0.025304   
    252. D(H  47,C  44,C  42,H  46)     -0.1221         0.025790   
    253. D(H  47,C  44,C  42,C  38)   -179.9704         0.025790   
    254. D(C  40,C  44,C  42,H  46)    179.6903         0.025790   
    255. D(C  40,C  44,C  42,C  38)     -0.1580         0.025790   
    256. D(H  47,C  44,C  40,H  45)     -0.0145         0.025840   
    257. D(H  47,C  44,C  40,C  39)    179.9394         0.025840   
    258. D(C  42,C  44,C  40,H  45)   -179.8269         0.025840   
    259. D(C  42,C  44,C  40,C  39)      0.1270         0.025840   
    -----------------------------------------------------------------

Number of atoms                         .... 48
Number of degrees of freedom            .... 259

         *************************************************************
         *                GEOMETRY OPTIMIZATION CYCLE   1            *
         *************************************************************
---------------------------------
CARTESIAN COORDINATES (ANGSTROEM)
---------------------------------
  C      3.711400    3.248490    0.905700
  C      3.981810    1.891750    0.718240
  C      2.421440    3.737730    0.693640
  H      4.500700    3.919930    1.218180
  C      2.964770    1.020550    0.315140
  H      4.981530    1.513020    0.887970
  C      1.400720    2.871520    0.291270
  H      2.211270    4.789130    0.841730
  C      1.657470    1.503560    0.091270
  H      3.212760   -0.023490    0.191140
  H      0.405530    3.268930    0.132340
  C      0.501290    0.619900   -0.340370
  N      0.882620   -0.776470   -0.613490
  H      0.036290    1.039520   -1.259550
  H     -0.262140    0.669810    0.467690
  C      1.695540   -1.064670   -1.668680
  C      0.403500   -1.783390    0.168230
  C      2.061710   -2.380650   -1.957150
  H      2.070770   -0.267200   -2.300340
  C      0.744460   -3.114060   -0.084120
  H     -0.250460   -1.566340    1.004950
  C      1.596710   -3.467890   -1.166760
  H      2.708350   -2.490920   -2.808740
  H      0.313670   -3.825250    0.597200
  C      1.948230   -4.781490   -1.434180
  C      2.798810   -5.135150   -2.517910
  C      1.481750   -5.869270   -0.645030
  C      3.140760   -6.465390   -2.768170
  H      3.225860   -4.424830   -3.202450
  C      1.849200   -7.185880   -0.931620
  H      0.831120   -5.758920    0.203540
  N      2.674310   -7.471930   -1.976560
  H      3.789330   -6.689370   -3.607780
  H      1.465650   -7.979360   -0.300620
  C      3.040210   -8.867900   -2.271910
  C      4.514770   -9.174010   -2.082490
  H      2.746820   -9.089620   -3.321650
  H      2.478100   -9.570350   -1.617010
  C      5.443520   -8.242420   -1.570630
  C      4.968390  -10.460700   -2.422910
  C      6.313670  -10.807340   -2.267460
  H      4.276790  -11.197760   -2.812800
  C      6.788060   -8.595070   -1.416680
  H      5.145450   -7.245870   -1.279190
  C      7.223160   -9.874800   -1.765950
  H      6.650590  -11.800380   -2.535580
  H      7.493660   -7.874660   -1.023190
  H      8.264340  -10.144630   -1.645100

----------------------------
CARTESIAN COORDINATES (A.U.)
----------------------------
  NO LB      ZA    FRAG     MASS         X           Y           Z
   0 C     6.0000    0    12.011    7.013530    6.138756    1.711525
   1 C     6.0000    0    12.011    7.524530    3.574889    1.357277
   2 C     6.0000    0    12.011    4.575858    7.063286    1.310790
   3 H     1.0000    0     1.008    8.505090    7.407594    2.302027
   4 C     6.0000    0    12.011    5.602603    1.928560    0.595528
   5 H     1.0000    0     1.008    9.413727    2.859193    1.678020
   6 C     6.0000    0    12.011    2.646977    5.426386    0.550421
   7 H     1.0000    0     1.008    4.178695    9.050144    1.590639
   8 C     6.0000    0    12.011    3.132164    2.841317    0.172475
   9 H     1.0000    0     1.008    6.071237   -0.044390    0.361202
  10 H     1.0000    0     1.008    0.766341    6.177382    0.250086
  11 C     6.0000    0    12.011    0.947301    1.171441   -0.643206
  12 N     7.0000    0    14.007    1.667910   -1.467316   -1.159328
  13 H     1.0000    0     1.008    0.068578    1.964408   -2.380205
  14 H     1.0000    0     1.008   -0.495373    1.265757    0.883806
  15 C     6.0000    0    12.011    3.204106   -2.011935   -3.153348
  16 C     6.0000    0    12.011    0.762504   -3.370119    0.317909
  17 C     6.0000    0    12.011    3.896067   -4.498777   -3.698478
  18 H     1.0000    0     1.008    3.913188   -0.504935   -4.347013
  19 C     6.0000    0    12.011    1.406826   -5.884721   -0.158964
  20 H     1.0000    0     1.008   -0.473301   -2.959954    1.899080
  21 C     6.0000    0    12.011    3.017345   -6.553362   -2.204857
  22 H     1.0000    0     1.008    5.118040   -4.707157   -5.307749
  23 H     1.0000    0     1.008    0.592750   -7.228675    1.128544
  24 C     6.0000    0    12.011    3.681621   -9.035707   -2.710207
  25 C     6.0000    0    12.011    5.288984   -9.704027   -4.758160
  26 C     6.0000    0    12.011    2.800102  -11.091313   -1.218930
  27 C     6.0000    0    12.011    5.935176  -12.217816   -5.231083
  28 H     1.0000    0     1.008    6.095992   -8.361717   -6.051753
  29 C     6.0000    0    12.011    3.494482  -13.579345   -1.760507
  30 H     1.0000    0     1.008    1.570589  -10.882782    0.384635
  31 N     7.0000    0    14.007    5.053713  -14.119901   -3.735157
  32 H     1.0000    0     1.008    7.160796  -12.641077   -6.817716
  33 H     1.0000    0     1.008    2.769677  -15.078805   -0.568089
  34 C     6.0000    0    12.011    5.745164  -16.757902   -4.293288
  35 C     6.0000    0    12.011    8.531679  -17.336366   -3.935336
  36 H     1.0000    0     1.008    5.190738  -17.176892   -6.277009
  37 H     1.0000    0     1.008    4.682930  -18.085341   -3.055706
  38 C     6.0000    0    12.011   10.286762  -15.575916   -2.968061
  39 C     6.0000    0    12.011    9.388896  -19.767858   -4.578636
  40 C     6.0000    0    12.011   11.931107  -20.422913   -4.284878
  41 H     1.0000    0     1.008    8.081962  -21.160700   -5.315422
  42 C     6.0000    0    12.011   12.827574  -16.242328   -2.677137
  43 H     1.0000    0     1.008    9.723491  -13.692710   -2.417319
  44 C     6.0000    0    12.011   13.649794  -18.660668   -3.337162
  45 H     1.0000    0     1.008   12.567794  -22.299486   -4.791552
  46 H     1.0000    0     1.008   14.160965  -14.880951   -1.933549
  47 H     1.0000    0     1.008   15.617339  -19.170572   -3.108788

--------------------------------
INTERNAL COORDINATES (ANGSTROEM)
--------------------------------
 C      0   0   0     0.000000000000     0.00000000     0.00000000
 C      1   0   0     1.396068138488     0.00000000     0.00000000
 C      1   2   0     1.395823062856   119.94924715     0.00000000
 H      1   2   3     1.082344637350   120.02622868   179.81176660
 C      2   1   3     1.398516861393   120.21462163     0.15829003
 H      2   1   3     1.082443885012   119.85878280   180.31016162
 C      3   1   2     1.397887942362   120.08914285   359.87226660
 H      3   1   2     1.082378878674   119.94261406   179.82654358
 C      7   3   1     1.406141928861   120.69345363   359.79993789
 H      5   2   1     1.080228939485   117.91828838   180.61953971
 H      7   3   1     1.083326630846   119.05788361   179.94582195
 C      9   7   3     1.517867015782   117.88695934   179.77060641
 N     12   9   7     1.473043203779   114.04219189   176.06711203
 H     12   9   7     1.112293943524   109.50022522    54.65919637
 H     12   9   7     1.112779105034   106.85594650   298.82302362
 C     13  12   9     1.362836784982   119.89655197   293.37659003
 C     13  12   9     1.361811300878   120.22529151   114.73057856
 C     16  13  12     1.396101275051   121.04855031   180.61609272
 H     16  13  12     1.084320206120   120.12752989     0.68679951
 C     17  13  12     1.396644870037   120.98823221   179.38402084
 H     17  13  12     1.083916390918   120.48567503   359.16217328
 C     18  16  13     1.422333353929   121.33016084     0.29022177
 H     18  16  13     1.074945715188   114.71868112   180.22577392
 H     20  17  13     1.074973572977   114.70750089   179.74302523
 C     22  18  16     1.385866056587   122.30274126   180.05185606
 C     25  22  18     1.422333450672   122.30271005     0.00000000
 C     25  22  18     1.422542316172   122.31532461   180.09385654
 C     26  25  22     1.396101116574   121.33048459   179.94903853
 H     26  25  22     1.074951727521   123.95086449   359.87780488
 C     27  25  22     1.396644272068   121.38233234   180.04646414
 H     27  25  22     1.074973285389   123.90981206     0.09366684
 N     30  27  25     1.361811557522   120.98900917     0.30009482
 H     28  26  25     1.084322386286   118.82403148   179.77965780
 H     30  27  25     1.083919790806   118.52511089   180.08273165
 C     32  30  27     1.473039942907   120.22606361   180.61586791
 C     35  32  30     1.517863782459   114.04221796   245.26943805
 H     35  32  30     1.112291112119   108.21689224   123.15312691
 H     35  32  30     1.112788238885   110.77807527     5.85847419
 C     36  35  32     1.411537158632   123.45987291     4.68659458
 C     36  35  32     1.406139408771   117.88665027   183.93192721
 C     40  36  35     1.397892081135   120.69345032   180.22925580
 H     40  36  35     1.083319996908   120.24878641     0.37833813
 C     39  36  35     1.398517227852   120.40257887   179.69581201
 H     39  36  35     1.080229096535   121.67745511     0.19724917
 C     41  40  36     1.395820615910   120.08885834     0.20136247
 H     41  40  36     1.082373254658   119.96849455   180.15524579
 H     43  39  36     1.082449217377   119.92663502   180.01407164
 H     45  41  40     1.082344096764   120.02382196   179.93944129

---------------------------
INTERNAL COORDINATES (A.U.)
---------------------------
 C      0   0   0     0.000000000000     0.00000000     0.00000000
 C      1   0   0     2.638186446035     0.00000000     0.00000000
 C      1   2   0     2.637723320209   119.94924715     0.00000000
 H      1   2   3     2.045334947110   120.02622868   179.81176660
 C      2   1   3     2.642813861704   120.21462163     0.15829003
 H      2   1   3     2.045522498011   119.85878280   180.31016162
 C      3   1   2     2.641625376974   120.08914285   359.87226660
 H      3   1   2     2.045399653835   119.94261406   179.82654358
 C      7   3   1     2.657223150970   120.69345363   359.79993789
 H      5   2   1     2.041336857562   117.91828838   180.61953971
 H      7   3   1     2.047190645882   119.05788361   179.94582195
 C      9   7   3     2.868352967541   117.88695934   179.77060641
 N     12   9   7     2.783648238577   114.04219189   176.06711203
 H     12   9   7     2.101930933679   109.50022522    54.65919637
 H     12   9   7     2.102847756064   106.85594650   298.82302362
 C     13  12   9     2.575388288850   119.89655197   293.37659003
 C     13  12   9     2.573450404739   120.22529151   114.73057856
 C     16  13  12     2.638249065065   121.04855031   180.61609272
 H     16  13  12     2.049068231044   120.12752989     0.68679951
 C     17  13  12     2.639276310716   120.98823221   179.38402084
 H     17  13  12     2.048305130903   120.48567503   359.16217328
 C     18  16  13     2.687820510068   121.33016084     0.29022177
 H     18  16  13     2.031353010537   114.71868112   180.22577392
 H     20  17  13     2.031405654130   114.70750089   179.74302523
 C     22  18  16     2.618907305247   122.30274126   180.05185606
 C     25  22  18     2.687820692885   122.30271005     0.00000000
 C     25  22  18     2.688215391479   122.31532461   180.09385654
 C     26  25  22     2.638248765587   121.33048459   179.94903853
 H     26  25  22     2.031364372200   123.95086449   359.87780488
 C     27  25  22     2.639275180718   121.38233234   180.04646414
 H     27  25  22     2.031405110667   123.90981206     0.09366684
 N     30  27  25     2.573450889725   120.98900917     0.30009482
 H     28  26  25     2.049072350960   118.82403148   179.77965780
 H     30  27  25     2.048311555760   118.52511089   180.08273165
 C     32  30  27     2.783642076422   120.22606361   180.61586791
 C     35  32  30     2.868346857445   114.04221796   245.26943805
 H     35  32  30     2.101925583101   108.21689224   123.15312691
 H     35  32  30     2.102865016541   110.77807527     5.85847419
 C     36  35  32     2.667418657669   123.45987291     4.68659458
 C     36  35  32     2.657218388692   117.88665027   183.93192721
 C     40  36  35     2.641633198122   120.69345032   180.22925580
 H     40  36  35     2.047178109556   120.24878641     0.37833813
 C     39  36  35     2.642814554212   120.40257887   179.69581201
 H     39  36  35     2.041337154344   121.67745511     0.19724917
 C     41  40  36     2.637718696152   120.08885834     0.20136247
 H     41  40  36     2.045389025986   119.96849455   180.15524579
 H     43  39  36     2.045532574720   119.92663502   180.01407164
 H     45  41  40     2.045333925550   120.02382196   179.93944129

---------------------
BASIS SET INFORMATION
---------------------
There are 3 groups of distinct atoms

 Group   1 Type C   : 11s6p2d1f contracted to 5s3p2d1f pattern {62111/411/11/1}
 Group   2 Type H   : 5s1p contracted to 3s1p pattern {311/1}
 Group   3 Type N   : 11s6p2d1f contracted to 5s3p2d1f pattern {62111/411/11/1}

Atom   0C    basis set group =>   1
Atom   1C    basis set group =>   1
Atom   2C    basis set group =>   1
Atom   3H    basis set group =>   2
Atom   4C    basis set group =>   1
Atom   5H    basis set group =>   2
Atom   6C    basis set group =>   1
Atom   7H    basis set group =>   2
Atom   8C    basis set group =>   1
Atom   9H    basis set group =>   2
Atom  10H    basis set group =>   2
Atom  11C    basis set group =>   1
Atom  12N    basis set group =>   3
Atom  13H    basis set group =>   2
Atom  14H    basis set group =>   2
Atom  15C    basis set group =>   1
Atom  16C    basis set group =>   1
Atom  17C    basis set group =>   1
Atom  18H    basis set group =>   2
Atom  19C    basis set group =>   1
Atom  20H    basis set group =>   2
Atom  21C    basis set group =>   1
Atom  22H    basis set group =>   2
Atom  23H    basis set group =>   2
Atom  24C    basis set group =>   1
Atom  25C    basis set group =>   1
Atom  26C    basis set group =>   1
Atom  27C    basis set group =>   1
Atom  28H    basis set group =>   2
Atom  29C    basis set group =>   1
Atom  30H    basis set group =>   2
Atom  31N    basis set group =>   3
Atom  32H    basis set group =>   2
Atom  33H    basis set group =>   2
Atom  34C    basis set group =>   1
Atom  35C    basis set group =>   1
Atom  36H    basis set group =>   2
Atom  37H    basis set group =>   2
Atom  38C    basis set group =>   1
Atom  39C    basis set group =>   1
Atom  40C    basis set group =>   1
Atom  41H    basis set group =>   2
Atom  42C    basis set group =>   1
Atom  43H    basis set group =>   2
Atom  44C    basis set group =>   1
Atom  45H    basis set group =>   2
Atom  46H    basis set group =>   2
Atom  47H    basis set group =>   2
---------------------------------
AUXILIARY/J BASIS SET INFORMATION
---------------------------------
There are 3 groups of distinct atoms

 Group   1 Type C   : 12s5p4d2f1g contracted to 6s4p3d1f1g pattern {711111/2111/211/2/1}
 Group   2 Type H   : 5s2p1d contracted to 3s1p1d pattern {311/2/1}
 Group   3 Type N   : 12s5p4d2f1g contracted to 6s4p3d1f1g pattern {711111/2111/211/2/1}

Atom   0C    basis set group =>   1
Atom   1C    basis set group =>   1
Atom   2C    basis set group =>   1
Atom   3H    basis set group =>   2
Atom   4C    basis set group =>   1
Atom   5H    basis set group =>   2
Atom   6C    basis set group =>   1
Atom   7H    basis set group =>   2
Atom   8C    basis set group =>   1
Atom   9H    basis set group =>   2
Atom  10H    basis set group =>   2
Atom  11C    basis set group =>   1
Atom  12N    basis set group =>   3
Atom  13H    basis set group =>   2
Atom  14H    basis set group =>   2
Atom  15C    basis set group =>   1
Atom  16C    basis set group =>   1
Atom  17C    basis set group =>   1
Atom  18H    basis set group =>   2
Atom  19C    basis set group =>   1
Atom  20H    basis set group =>   2
Atom  21C    basis set group =>   1
Atom  22H    basis set group =>   2
Atom  23H    basis set group =>   2
Atom  24C    basis set group =>   1
Atom  25C    basis set group =>   1
Atom  26C    basis set group =>   1
Atom  27C    basis set group =>   1
Atom  28H    basis set group =>   2
Atom  29C    basis set group =>   1
Atom  30H    basis set group =>   2
Atom  31N    basis set group =>   3
Atom  32H    basis set group =>   2
Atom  33H    basis set group =>   2
Atom  34C    basis set group =>   1
Atom  35C    basis set group =>   1
Atom  36H    basis set group =>   2
Atom  37H    basis set group =>   2
Atom  38C    basis set group =>   1
Atom  39C    basis set group =>   1
Atom  40C    basis set group =>   1
Atom  41H    basis set group =>   2
Atom  42C    basis set group =>   1
Atom  43H    basis set group =>   2
Atom  44C    basis set group =>   1
Atom  45H    basis set group =>   2
Atom  46H    basis set group =>   2
Atom  47H    basis set group =>   2
--------------------------------------------------------------------------
[[7802,1],3]: A high-performance Open MPI point-to-point messaging module
was unable to find any relevant network interfaces:

Module: OpenFabrics (openib)
  Host: compute-1-8

Another transport will be used instead, although this may result in
lower performance.

NOTE: You can disable this warning by setting the MCA parameter
btl_base_warn_component_unused to 0.
--------------------------------------------------------------------------


           ************************************************************
           *        Program running with 4 parallel MPI-processes     *
           *              working on a common directory               *
           ************************************************************
------------------------------------------------------------------------------
                           ORCA GTO INTEGRAL CALCULATION
------------------------------------------------------------------------------

                         BASIS SET STATISTICS AND STARTUP INFO

 # of primitive gaussian shells          ...  652
 # of primitive gaussian functions       ... 1372
 # of contracted shells                  ...  374
 # of contracted basis functions         ...  938
 Highest angular momentum                ...    3
 Maximum contraction depth               ...    6
 Integral package used                   ... LIBINT
 Integral threshhold            Thresh   ...  2.500e-11
 Primitive cut-off              TCut     ...  2.500e-12


------------------------------ INTEGRAL EVALUATION ----------------------------


 * One electron integrals 
 Pre-screening matrix                    ... done
 Shell pair data                         ... done (   0.018 sec)

[compute-1-8.local:12044] 3 more processes have sent help message help-mpi-btl-base.txt / btl:no-nics
[compute-1-8.local:12044] Set MCA parameter "orte_base_help_aggregate" to 0 to see all help / error messages
--------------------------------------------------------------------------
[[7785,1],3]: A high-performance Open MPI point-to-point messaging module
was unable to find any relevant network interfaces:

Module: OpenFabrics (openib)
  Host: compute-1-8

Another transport will be used instead, although this may result in
lower performance.

NOTE: You can disable this warning by setting the MCA parameter
btl_base_warn_component_unused to 0.
--------------------------------------------------------------------------


           ************************************************************
           *        Program running with 4 parallel MPI-processes     *
           *              working on a common directory               *
           ************************************************************
-------------------------------------------------------------------------------
                                 ORCA SCF
-------------------------------------------------------------------------------

------------
SCF SETTINGS
------------
Hamiltonian:
 Density Functional     Method          .... DFT(GTOs)
 Exchange Functional    Exchange        .... WB97X-D3
 Correlation Functional Correlation     .... WB97X-D3
 Gradients option       PostSCFGGA      .... off
 Hybrid DFT is turned on
   Fraction HF Exchange ScalHFX         ....  0.195728
   Scaling of DF-GGA-X  ScalDFX         ....  0.000000
   Scaling of DF-GGA-C  ScalDFC         ....  1.000000
   Scaling of DF-LDA-C  ScalLDAC        ....  1.000000
   Perturbative correction              ....  0.000000
   Density functional embedding theory  .... OFF
 Long-range corrected/Screened/Range-Separated Hybrid DFT is turned on
   Amount of maximum screened exact exchange              ....  0.804272
   Range separation parameter mu (erf(mu*r12)/r12)        ....  0.250000


General Settings:
 Integral files         IntName         .... BV
 Hartree-Fock type      HFTyp           .... RHF
 Total Charge           Charge          ....    0
 Multiplicity           Mult            ....    1
 Number of Electrons    NEL             ....  180
 Basis Dimension        Dim             ....  938
 Nuclear Repulsion      ENuc            ....   1969.2045784059 Eh

Convergence Acceleration:
 DIIS                   CNVDIIS         .... on
   Start iteration      DIISMaxIt       ....    12
   Startup error        DIISStart       ....  0.200000
   # of expansion vecs  DIISMaxEq       ....     5
   Bias factor          DIISBfac        ....   1.050
   Max. coefficient     DIISMaxC        ....  10.000
 Newton-Raphson         CNVNR           .... off
 SOSCF                  CNVSOSCF        .... on
   Start iteration      SOSCFMaxIt      ....   150
   Startup grad/error   SOSCFStart      ....  0.003300
 Level Shifting         CNVShift        .... on
   Level shift para.    LevelShift      ....    0.2500
   Turn off err/grad.   ShiftErr        ....    0.0010
 Zerner damping         CNVZerner       .... off
 Static damping         CNVDamp         .... on
   Fraction old density DampFac         ....    0.7000
   Max. Damping (<1)    DampMax         ....    0.9800
   Min. Damping (>=0)   DampMin         ....    0.0000
   Turn off err/grad.   DampErr         ....    0.1000
 Fernandez-Rico         CNVRico         .... off

SCF Procedure:
 Maximum # iterations   MaxIter         ....   125
 SCF integral mode      SCFMode         .... Direct
   Integral package                     .... LIBINT
 Reset frequency        DirectResetFreq ....    20
 Integral Threshold     Thresh          ....  2.500e-11 Eh
 Primitive CutOff       TCut            ....  2.500e-12 Eh

Convergence Tolerance:
 Convergence Check Mode ConvCheckMode   .... Total+1el-Energy
 Convergence forced     ConvForced      .... 0
 Energy Change          TolE            ....  1.000e-08 Eh
 1-El. energy change                    ....  1.000e-05 Eh
 Orbital Gradient       TolG            ....  1.000e-05
 Orbital Rotation angle TolX            ....  1.000e-05
 DIIS Error             TolErr          ....  5.000e-07


Diagonalization of the overlap matrix:
Smallest eigenvalue                        ... 8.487e-06
Time for diagonalization                   ...    0.480 sec
Threshold for overlap eigenvalues          ... 1.000e-08
Number of eigenvalues below threshold      ... 0
Time for construction of square roots      ...    0.173 sec
Total time needed                          ...    0.657 sec

-------------------
DFT GRID GENERATION
-------------------

General Integration Accuracy     IntAcc      ...  4.340
Radial Grid Type                 RadialGrid  ... Gauss-Chebyshev
Angular Grid (max. acc.)         AngularGrid ... Lebedev-110
Angular grid pruning method      GridPruning ... 3 (G Style)
Weight generation scheme         WeightScheme... Becke
Basis function cutoff            BFCut       ...    1.0000e-11
Integration weight cutoff        WCut        ...    1.0000e-14
Grids for H and He will be reduced by one unit

# of grid points (after initial pruning)     ...  60616 (   0.0 sec)
# of grid points (after weights+screening)   ...  54146 (   0.5 sec)
nearest neighbour list constructed           ...    0.0 sec
Grid point re-assignment to atoms done       ...    0.0 sec
Grid point division into batches done        ...    0.1 sec
Reduced shell lists constructed in    0.4 sec

Total number of grid points                  ...    54146
Total number of batches                      ...      870
Average number of points per batch           ...       62
Average number of grid points per atom       ...     1128
Average number of shells per batch           ...   120.58 (32.24%)
Average number of basis functions per batch  ...   298.68 (31.84%)
Average number of large shells per batch     ...    84.09 (69.74%)
Average number of large basis fcns per batch ...   211.77 (70.90%)
Maximum spatial batch extension              ...  18.17, 16.99, 25.22 au
Average spatial batch extension              ...   0.84,  0.76,  0.97 au

Time for grid setup =    1.100 sec

------------------------------
INITIAL GUESS: MODEL POTENTIAL
------------------------------
Loading Hartree-Fock densities                     ... done
Calculating cut-offs                               ... done
Setting up the integral package                    ... done
Initializing the effective Hamiltonian             ... done
Starting the Coulomb interaction                   ... done (   1.4 sec)
Reading the grid                                   ... done
Mapping shells                                     ... done
Starting the XC term evaluation                    ... done (   1.3 sec)
  promolecular density results
     # of electrons  =    180.000249982
     EX              =   -142.358056758
     EC              =     -6.010100172
     EX+EC           =   -148.368156930
Transforming the Hamiltonian                       ... done (   0.2 sec)
Diagonalizing the Hamiltonian                      ... [compute-1-8.local:12063] 3 more processes have sent help message help-mpi-btl-base.txt / btl:no-nics
[compute-1-8.local:12063] Set MCA parameter "orte_base_help_aggregate" to 0 to see all help / error messages
done (   0.5 sec)
Back transforming the eigenvectors                 ... done (   0.1 sec)
Now organizing SCF variables                       ... done
                      ------------------
                      INITIAL GUESS DONE (   4.7 sec)
                      ------------------

--------------------
CPCM SOLVATION MODEL
--------------------
CPCM parameters:
  Epsilon                                         ...       3.0000
  Refrac                                          ...       1.3300
  Rsolv                                           ...       1.3000
  Surface type                                    ...    GEPOL SES
  Epsilon function type                           ...         CPCM
Radii:
 Radius for C  used is    3.7795 Bohr (=   2.0000 Ang.)
 Radius for H  used is    2.4566 Bohr (=   1.3000 Ang.)
 Radius for N  used is    3.4582 Bohr (=   1.8300 Ang.)
Calculating surface                               ...        done! (  0.2s)
GEPOL surface points                              ...         1492
GEPOL Volume                                      ...    2866.9743
GEPOL Surface-area                                ...    1412.2076
Calculating surface distance matrix               ...        done! (  0.0s)
Performing Cholesky decomposition & store         ...        done! (  0.1s)
Overall time for CPCM initialization              ...                 0.3s
--------------
SCF ITERATIONS
--------------
ITER       Energy         Delta-E        Max-DP      RMS-DP      [F,P]     Damp
               ***  Starting incremental Fock matrix formation  ***
  0  -1036.7560061131   0.000000000000 0.02384685  0.00047966  0.1354091 0.7000
  1  -1036.9605819410  -0.204575827973 0.01696159  0.00039781  0.0838250 0.7000
                               ***Turning on DIIS***
  2  -1037.0730287484  -0.112446807383 0.04092125  0.00089943  0.0453165 0.0000
  3  -1037.2624675104  -0.189438761981 0.01313479  0.00025814  0.0306627 0.0000
  4  -1037.2863139688  -0.023846458365 0.00501115  0.00011252  0.0056507 0.0000
                      *** Initiating the SOSCF procedure ***
                           *** Shutting down DIIS ***
                      *** Re-Reading the Fockian *** 
                      *** Removing any level shift *** 
ITER      Energy       Delta-E        Grad      Rot      Max-DP    RMS-DP
  5  -1037.28714686  -0.0008328865  0.001526  0.001526  0.003398  0.000060
               *** Restarting incremental Fock matrix formation ***
  6  -1037.28731889  -0.0001720381  0.001363  0.003634  0.002865  0.000056
  7  -1037.28738065  -0.0000617569  0.000532  0.002754  0.002649  0.000052
  8  -1037.28739124  -0.0000105940  0.000391  0.000895  0.001056  0.000019
  9  -1037.28739870  -0.0000074572  0.000059  0.000156  0.000221  0.000003
 10  -1037.28739881  -0.0000001114  0.000025  0.000081  0.000061  0.000001
 11  -1037.28739895  -0.0000001351  0.000007  0.000033  0.000017  0.000000
 12  -1037.28739894   0.0000000123  0.000004  0.000025  0.000014  0.000000
 13  -1037.28739892   0.0000000144  0.000003  0.000021  0.000015  0.000000
                  ***Gradient check signals convergence***
              ***Rediagonalizing the Fockian in SOSCF/NRSCF***

               *****************************************************
               *                     SUCCESS                       *
               *           SCF CONVERGED AFTER  14 CYCLES          *
               *****************************************************

Setting up the final grid:

General Integration Accuracy     IntAcc      ...  4.670
Radial Grid Type                 RadialGrid  ... Gauss-Chebyshev
Angular Grid (max. acc.)         AngularGrid ... Lebedev-302
Angular grid pruning method      GridPruning ... 3 (G Style)
Weight generation scheme         WeightScheme... Becke
Basis function cutoff            BFCut       ...    1.0000e-11
Integration weight cutoff        WCut        ...    1.0000e-14
Grids for H and He will be reduced by one unit

# of grid points (after initial pruning)     ... 236180 (   0.0 sec)
# of grid points (after weights+screening)   ... 206631 (   2.1 sec)
nearest neighbour list constructed           ...    0.0 sec
Grid point re-assignment to atoms done       ...    0.1 sec
Grid point division into batches done        ...    1.1 sec
Reduced shell lists constructed in    2.9 sec

Total number of grid points                  ...   206631
Total number of batches                      ...     3255
Average number of points per batch           ...       63
Average number of grid points per atom       ...     4305
Average number of shells per batch           ...   109.26 (29.21%)
Average number of basis functions per batch  ...   269.58 (28.74%)
Average number of large shells per batch     ...    75.61 (69.20%)
Average number of large basis fcns per batch ...   188.82 (70.04%)
Maximum spatial batch extension              ...  17.69, 15.03, 20.93 au
Average spatial batch extension              ...   0.56,  0.53,  0.60 au

Final grid set up in    5.6 sec
Final integration                            ... done (   7.1 sec)
Change in XC energy                          ...     0.006431607
Integrated number of electrons               ...   179.999923226
Previous integrated no of electrons          ...   180.003318153

----------------
TOTAL SCF ENERGY
----------------

Total Energy       :        -1037.28096731 Eh          -28225.85009 eV

Components:
Nuclear Repulsion  :         1969.20457841 Eh           53584.78078 eV
Electronic Energy  :        -3006.48554571 Eh          -81810.63087 eV
One Electron Energy:        -5314.63950463 Eh         -144618.69319 eV
Two Electron Energy:         2308.15395892 Eh           62808.06232 eV
CPCM Dielectric    :           -0.01655040 Eh              -0.45036 eV

Virial components:
Potential Energy   :        -2069.36427848 Eh          -56310.26478 eV
Kinetic Energy     :         1032.08331117 Eh           28084.41468 eV
Virial Ratio       :            2.00503608


DFT components:
N(Alpha)           :       89.999961613128 electrons
N(Beta)            :       89.999961613128 electrons
N(Total)           :      179.999923226256 electrons
E(XC)              :     -104.480899557232 Eh       
DFET-embed. en.    :        0.000000000000 Eh       
CPCM Solvation Model Properties:
Surface-charge          :           -0.04667024
Charge-correction       :           -0.00009038 Eh              -0.00246 eV
Free-energy (cav+disp)  :            0.00636779 Eh               0.17328 eV
Corrected G(solv)       :        -1037.27468989 Eh          -28225.67928 eV

---------------
SCF CONVERGENCE
---------------

  Last Energy change         ...    8.2730e-09  Tolerance :   1.0000e-08
  Last MAX-Density change    ...    8.5067e-06  Tolerance :   1.0000e-07
  Last RMS-Density change    ...    1.3424e-07  Tolerance :   5.0000e-09
  Last Orbital Gradient      ...    1.1075e-06  Tolerance :   1.0000e-05
  Last Orbital Rotation      ...    1.2339e-05  Tolerance :   1.0000e-05

             **** THE GBW FILE WAS UPDATED (BV.gbw) ****
             **** DENSITY FILE WAS UPDATED (BV.scfp) ****
             **** ENERGY FILE WAS UPDATED (BV.en.tmp) ****
             **** THE GBW FILE WAS UPDATED (BV.gbw) ****
             **** DENSITY FILE WAS UPDATED (BV.scfp) ****
----------------
ORBITAL ENERGIES
----------------

  NO   OCC          E(Eh)            E(eV) 
   0   2.0000     -14.459973      -393.4759 
   1   2.0000     -14.459908      -393.4741 
   2   2.0000     -10.326705      -281.0039 
   3   2.0000     -10.326660      -281.0027 
   4   2.0000     -10.309071      -280.5241 
   5   2.0000     -10.308680      -280.5134 
   6   2.0000     -10.308185      -280.5000 
   7   2.0000     -10.307908      -280.4924 
   8   2.0000     -10.297730      -280.2155 
   9   2.0000     -10.297551      -280.2106 
  10   2.0000     -10.282682      -279.8060 
  11   2.0000     -10.282496      -279.8009 
  12   2.0000     -10.282049      -279.7888 
  13   2.0000     -10.281946      -279.7860 
  14   2.0000     -10.281889      -279.7844 
  15   2.0000     -10.281643      -279.7777 
  16   2.0000     -10.281186      -279.7653 
  17   2.0000     -10.281058      -279.7618 
  18   2.0000     -10.278798      -279.7003 
  19   2.0000     -10.278691      -279.6974 
  20   2.0000     -10.263960      -279.2966 
  21   2.0000     -10.263799      -279.2922 
  22   2.0000     -10.261032      -279.2169 
  23   2.0000     -10.260928      -279.2140 
  24   2.0000     -10.254354      -279.0352 
  25   2.0000     -10.253764      -279.0191 
  26   2.0000      -1.095585       -29.8124 
  27   2.0000      -1.095113       -29.7995 
  28   2.0000      -0.979215       -26.6458 
  29   2.0000      -0.978601       -26.6291 
  30   2.0000      -0.948807       -25.8183 
  31   2.0000      -0.913070       -24.8459 
  32   2.0000      -0.891310       -24.2538 
  33   2.0000      -0.875008       -23.8102 
  34   2.0000      -0.871903       -23.7257 
  35   2.0000      -0.868932       -23.6448 
  36   2.0000      -0.863712       -23.5028 
  37   2.0000      -0.862450       -23.4684 
  38   2.0000      -0.821996       -22.3676 
  39   2.0000      -0.799239       -21.7484 
  40   2.0000      -0.756381       -20.5822 
  41   2.0000      -0.754654       -20.5352 
  42   2.0000      -0.727659       -19.8006 
  43   2.0000      -0.716971       -19.5098 
  44   2.0000      -0.716723       -19.5030 
  45   2.0000      -0.703717       -19.1491 
  46   2.0000      -0.698221       -18.9996 
  47   2.0000      -0.692193       -18.8355 
  48   2.0000      -0.641535       -17.4571 
  49   2.0000      -0.629914       -17.1408 
  50   2.0000      -0.621141       -16.9021 
  51   2.0000      -0.606384       -16.5006 
  52   2.0000      -0.605572       -16.4785 
  53   2.0000      -0.592320       -16.1179 
  54   2.0000      -0.567842       -15.4518 
  55   2.0000      -0.567021       -15.4294 
  56   2.0000      -0.564102       -15.3500 
  57   2.0000      -0.559008       -15.2114 
  58   2.0000      -0.546817       -14.8796 
  59   2.0000      -0.546011       -14.8577 
  60   2.0000      -0.545342       -14.8395 
  61   2.0000      -0.538823       -14.6621 
  62   2.0000      -0.532355       -14.4861 
  63   2.0000      -0.527088       -14.3428 
  64   2.0000      -0.526807       -14.3351 
  65   2.0000      -0.517409       -14.0794 
  66   2.0000      -0.516630       -14.0582 
  67   2.0000      -0.511402       -13.9160 
  68   2.0000      -0.491330       -13.3698 
  69   2.0000      -0.488921       -13.3042 
  70   2.0000      -0.478230       -13.0133 
  71   2.0000      -0.472942       -12.8694 
  72   2.0000      -0.471548       -12.8315 
  73   2.0000      -0.462264       -12.5788 
  74   2.0000      -0.460858       -12.5406 
  75   2.0000      -0.445621       -12.1260 
  76   2.0000      -0.439116       -11.9489 
  77   2.0000      -0.437529       -11.9058 
  78   2.0000      -0.435413       -11.8482 
  79   2.0000      -0.430096       -11.7035 
  80   2.0000      -0.421110       -11.4590 
  81   2.0000      -0.410030       -11.1575 
  82   2.0000      -0.352900        -9.6029 
  83   2.0000      -0.347717        -9.4619 
  84   2.0000      -0.342838        -9.3291 
  85   2.0000      -0.341281        -9.2867 
  86   2.0000      -0.333351        -9.0709 
  87   2.0000      -0.332637        -9.0515 
  88   2.0000      -0.325503        -8.8574 
  89   2.0000      -0.180162        -4.9025 
  90   0.0000       0.047219         1.2849 
  91   0.0000       0.049689         1.3521 
  92   0.0000       0.057014         1.5514 
  93   0.0000       0.060236         1.6391 
  94   0.0000       0.064351         1.7511 
  95   0.0000       0.064888         1.7657 
  96   0.0000       0.086498         2.3537 
  97   0.0000       0.124056         3.3757 
  98   0.0000       0.126945         3.4543 
  99   0.0000       0.139969         3.8088 
 100   0.0000       0.141947         3.8626 
 101   0.0000       0.144570         3.9339 
 102   0.0000       0.151195         4.1142 
 103   0.0000       0.156498         4.2585 
 104   0.0000       0.160484         4.3670 
 105   0.0000       0.162506         4.4220 
 106   0.0000       0.170643         4.6434 
 107   0.0000       0.171294         4.6611 
 108   0.0000       0.176210         4.7949 
 109   0.0000       0.181081         4.9275 
 110   0.0000       0.182298         4.9606 
 111   0.0000       0.183362         4.9895 
 112   0.0000       0.185001         5.0341 
 113   0.0000       0.193807         5.2737 
 114   0.0000       0.195543         5.3210 
 115   0.0000       0.205671         5.5966 
 116   0.0000       0.206490         5.6189 
 117   0.0000       0.214277         5.8308 
 118   0.0000       0.222010         6.0412 
 119   0.0000       0.227218         6.1829 
 120   0.0000       0.231442         6.2979 
 121   0.0000       0.233839         6.3631 
 122   0.0000       0.237500         6.4627 
 123   0.0000       0.239717         6.5230 
 124   0.0000       0.245986         6.6936 
 125   0.0000       0.247166         6.7257 
 126   0.0000       0.251029         6.8308 
 127   0.0000       0.258666         7.0387 
 128   0.0000       0.266470         7.2510 
 129   0.0000       0.267979         7.2921 
 130   0.0000       0.275442         7.4952 
 131   0.0000       0.285043         7.7564 
 132   0.0000       0.285184         7.7603 
 133   0.0000       0.288057         7.8384 
 134   0.0000       0.292115         7.9489 
 135   0.0000       0.293583         7.9888 
 136   0.0000       0.294315         8.0087 
 137   0.0000       0.298905         8.1336 
 138   0.0000       0.301410         8.2018 
 139   0.0000       0.303119         8.2483 
 140   0.0000       0.308803         8.4030 
 141   0.0000       0.309383         8.4187 
 142   0.0000       0.314289         8.5523 
 143   0.0000       0.316972         8.6252 
 144   0.0000       0.325081         8.8459 
 145   0.0000       0.327315         8.9067 
 146   0.0000       0.329497         8.9661 
 147   0.0000       0.332514         9.0482 
 148   0.0000       0.333756         9.0820 
 149   0.0000       0.333987         9.0883 
 150   0.0000       0.335992         9.1428 
 151   0.0000       0.342259         9.3133 
 152   0.0000       0.345592         9.4040 
 153   0.0000       0.352645         9.5960 
 154   0.0000       0.355589         9.6761 
 155   0.0000       0.356960         9.7134 
 156   0.0000       0.362387         9.8611 
 157   0.0000       0.366709         9.9787 
 158   0.0000       0.369397        10.0518 
 159   0.0000       0.375588        10.2203 
 160   0.0000       0.380496        10.3538 
 161   0.0000       0.387909        10.5556 
 162   0.0000       0.390573        10.6280 
 163   0.0000       0.391522        10.6538 
 164   0.0000       0.391719        10.6592 
 165   0.0000       0.401060        10.9134 
 166   0.0000       0.402242        10.9456 
 167   0.0000       0.408209        11.1079 
 168   0.0000       0.412133        11.2147 
 169   0.0000       0.419370        11.4116 
 170   0.0000       0.419589        11.4176 
 171   0.0000       0.421379        11.4663 
 172   0.0000       0.423512        11.5243 
 173   0.0000       0.426311        11.6005 
 174   0.0000       0.426785        11.6134 
 175   0.0000       0.431611        11.7447 
 176   0.0000       0.431964        11.7543 
 177   0.0000       0.444169        12.0865 
 178   0.0000       0.445180        12.1140 
 179   0.0000       0.448396        12.2015 
 180   0.0000       0.449438        12.2298 
 181   0.0000       0.450808        12.2671 
 182   0.0000       0.453786        12.3481 
 183   0.0000       0.458625        12.4798 
 184   0.0000       0.461397        12.5553 
 185   0.0000       0.467850        12.7308 
 186   0.0000       0.469098        12.7648 
 187   0.0000       0.473249        12.8778 
 188   0.0000       0.473670        12.8892 
 189   0.0000       0.483085        13.1454 
 190   0.0000       0.486793        13.2463 
 191   0.0000       0.491562        13.3761 
 192   0.0000       0.494490        13.4558 
 193   0.0000       0.496632        13.5140 
 194   0.0000       0.498752        13.5717 
 195   0.0000       0.500530        13.6201 
 196   0.0000       0.503385        13.6978 
 197   0.0000       0.503765        13.7081 
 198   0.0000       0.505516        13.7558 
 199   0.0000       0.514868        14.0103 
 200   0.0000       0.514925        14.0118 
 201   0.0000       0.518191        14.1007 
 202   0.0000       0.520341        14.1592 
 203   0.0000       0.523253        14.2384 
 204   0.0000       0.525414        14.2972 
 205   0.0000       0.530095        14.4246 
 206   0.0000       0.530680        14.4405 
 207   0.0000       0.540900        14.7186 
 208   0.0000       0.543129        14.7793 
 209   0.0000       0.544977        14.8296 
 210   0.0000       0.549030        14.9399 
 211   0.0000       0.551465        15.0061 
 212   0.0000       0.557462        15.1693 
 213   0.0000       0.563986        15.3468 
 214   0.0000       0.564706        15.3664 
 215   0.0000       0.572616        15.5817 
 216   0.0000       0.576709        15.6930 
 217   0.0000       0.578946        15.7539 
 218   0.0000       0.585634        15.9359 
 219   0.0000       0.586415        15.9572 
 220   0.0000       0.589954        16.0535 
 221   0.0000       0.591932        16.1073 
 222   0.0000       0.593992        16.1634 
 223   0.0000       0.596064        16.2197 
 224   0.0000       0.601742        16.3742 
 225   0.0000       0.606996        16.5172 
 226   0.0000       0.610851        16.6221 
 227   0.0000       0.620522        16.8853 
 228   0.0000       0.629341        17.1252 
 229   0.0000       0.630774        17.1642 
 230   0.0000       0.632484        17.2108 
 231   0.0000       0.633988        17.2517 
 232   0.0000       0.640660        17.4332 
 233   0.0000       0.655707        17.8427 
 234   0.0000       0.666201        18.1283 
 235   0.0000       0.672249        18.2928 
 236   0.0000       0.678322        18.4581 
 237   0.0000       0.683336        18.5945 
 238   0.0000       0.690401        18.7868 
 239   0.0000       0.702448        19.1146 
 240   0.0000       0.703880        19.1535 
 241   0.0000       0.711045        19.3485 
 242   0.0000       0.712650        19.3922 
 243   0.0000       0.719948        19.5908 
 244   0.0000       0.723826        19.6963 
 245   0.0000       0.726313        19.7640 
 246   0.0000       0.727780        19.8039 
 247   0.0000       0.739740        20.1293 
 248   0.0000       0.742247        20.1976 
 249   0.0000       0.743393        20.2288 
 250   0.0000       0.754360        20.5272 
 251   0.0000       0.754706        20.5366 
 252   0.0000       0.759075        20.6555 
 253   0.0000       0.762355        20.7447 
 254   0.0000       0.767873        20.8949 
 255   0.0000       0.769672        20.9438 
 256   0.0000       0.772151        21.0113 
 257   0.0000       0.777801        21.1651 
 258   0.0000       0.778806        21.1924 
 259   0.0000       0.785886        21.3850 
 260   0.0000       0.791354        21.5338 
 261   0.0000       0.791476        21.5372 
 262   0.0000       0.804795        21.8996 
 263   0.0000       0.805239        21.9117 
 264   0.0000       0.806909        21.9571 
 265   0.0000       0.813324        22.1317 
 266   0.0000       0.821140        22.3444 
 267   0.0000       0.827553        22.5189 
 268   0.0000       0.829693        22.5771 
 269   0.0000       0.834216        22.7002 
 270   0.0000       0.834644        22.7118 
 271   0.0000       0.842058        22.9136 
 272   0.0000       0.849469        23.1152 
 273   0.0000       0.849695        23.1214 
 274   0.0000       0.852779        23.2053 
 275   0.0000       0.857562        23.3354 
 276   0.0000       0.862840        23.4791 
 277   0.0000       0.872634        23.7456 
 278   0.0000       0.872824        23.7507 
 279   0.0000       0.877616        23.8811 
 280   0.0000       0.879854        23.9421 
 281   0.0000       0.885520        24.0962 
 282   0.0000       0.893490        24.3131 
 283   0.0000       0.900979        24.5169 
 284   0.0000       0.906218        24.6595 
 285   0.0000       0.912953        24.8427 
 286   0.0000       0.914677        24.8896 
 287   0.0000       0.925633        25.1877 
 288   0.0000       0.929017        25.2798 
 289   0.0000       0.930410        25.3177 
 290   0.0000       0.939162        25.5559 
 291   0.0000       0.945409        25.7259 
 292   0.0000       0.948732        25.8163 
 293   0.0000       0.949688        25.8423 
 294   0.0000       0.957352        26.0509 
 295   0.0000       0.962775        26.1984 
 296   0.0000       0.968010        26.3409 
 297   0.0000       0.972574        26.4651 
 298   0.0000       0.982170        26.7262 
 299   0.0000       0.984903        26.8006 
 300   0.0000       0.991838        26.9893 
 301   0.0000       0.995132        27.0789 
 302   0.0000       1.001695        27.2575 
 303   0.0000       1.001948        27.2644 
 304   0.0000       1.017524        27.6882 
 305   0.0000       1.018616        27.7179 
 306   0.0000       1.026491        27.9322 
 307   0.0000       1.029115        28.0036 
 308   0.0000       1.033951        28.1352 
 309   0.0000       1.044006        28.4089 
 310   0.0000       1.052840        28.6492 
 311   0.0000       1.079660        29.3791 
 312   0.0000       1.080310        29.3967 
 313   0.0000       1.088655        29.6238 
 314   0.0000       1.090861        29.6838 
 315   0.0000       1.093780        29.7633 
 316   0.0000       1.099733        29.9253 
 317   0.0000       1.103675        30.0325 
 318   0.0000       1.110417        30.2160 
 319   0.0000       1.116394        30.3786 
 320   0.0000       1.127111        30.6702 
 321   0.0000       1.132489        30.8166 
 322   0.0000       1.140736        31.0410 
 323   0.0000       1.142071        31.0773 
 324   0.0000       1.151890        31.3445 
 325   0.0000       1.170430        31.8490 
 326   0.0000       1.177325        32.0366 
 327   0.0000       1.180375        32.1196 
 328   0.0000       1.183852        32.2143 
 329   0.0000       1.186649        32.2904 
 330   0.0000       1.200810        32.6757 
 331   0.0000       1.205534        32.8043 
 332   0.0000       1.215008        33.0620 
 333   0.0000       1.218991        33.1704 
 334   0.0000       1.222716        33.2718 
 335   0.0000       1.226346        33.3706 
 336   0.0000       1.242166        33.8011 
 337   0.0000       1.245892        33.9025 
 338   0.0000       1.250090        34.0167 
 339   0.0000       1.252171        34.0733 
 340   0.0000       1.266703        34.4687 
 341   0.0000       1.274128        34.6708 
 342   0.0000       1.289642        35.0929 
 343   0.0000       1.294717        35.2311 
 344   0.0000       1.295262        35.2459 
 345   0.0000       1.300524        35.3891 
 346   0.0000       1.303102        35.4592 
 347   0.0000       1.307884        35.5893 
 348   0.0000       1.314898        35.7802 
 349   0.0000       1.315217        35.7889 
 350   0.0000       1.317951        35.8633 
 351   0.0000       1.325874        36.0789 
 352   0.0000       1.333052        36.2742 
 353   0.0000       1.341278        36.4980 
 354   0.0000       1.345926        36.6245 
 355   0.0000       1.347460        36.6663 
 356   0.0000       1.353416        36.8283 
 357   0.0000       1.356559        36.9139 
 358   0.0000       1.362011        37.0622 
 359   0.0000       1.364267        37.1236 
 360   0.0000       1.365844        37.1665 
 361   0.0000       1.369127        37.2558 
 362   0.0000       1.377449        37.4823 
 363   0.0000       1.388410        37.7806 
 364   0.0000       1.395157        37.9641 
 365   0.0000       1.405972        38.2584 
 366   0.0000       1.406159        38.2635 
 367   0.0000       1.422060        38.6962 
 368   0.0000       1.427266        38.8379 
 369   0.0000       1.434999        39.0483 
 370   0.0000       1.440848        39.2075 
 371   0.0000       1.441120        39.2149 
 372   0.0000       1.445089        39.3229 
 373   0.0000       1.460832        39.7513 
 374   0.0000       1.478608        40.2350 
[...]
      px      :     0.018785
      py      :     0.011630
 23 H s       :     0.788084  s :     0.788084
      pz      :     0.024609  p :     0.061232
      px      :     0.015243
      py      :     0.021380
 24 C s       :     2.691953  s :     2.691953
      pz      :     0.969584  p :     2.888293
      px      :     0.919802
      py      :     0.998907
      dz2     :     0.107110  d :     0.529095
      dxz     :     0.062156
      dyz     :     0.158700
      dx2y2   :     0.087734
      dxy     :     0.113396
      f0      :     0.009422  f :     0.055166
      f+1     :     0.004851
      f-1     :     0.011653
      f+2     :     0.008006
      f-2     :     0.008353
      f+3     :     0.005825
      f-3     :     0.007057
 25 C s       :     2.756004  s :     2.756004
      pz      :     0.978363  p :     2.974269
      px      :     0.953422
      py      :     1.042485
      dz2     :     0.072326  d :     0.376264
      dxz     :     0.044509
      dyz     :     0.137184
      dx2y2   :     0.059879
      dxy     :     0.062366
      f0      :     0.007552  f :     0.041591
      f+1     :     0.004542
      f-1     :     0.007233
      f+2     :     0.006513
      f-2     :     0.004117
      f+3     :     0.005929
      f-3     :     0.005705
 26 C s       :     2.756069  s :     2.756069
      pz      :     0.977529  p :     2.977039
      px      :     0.952288
      py      :     1.047221
      dz2     :     0.085048  d :     0.375423
      dxz     :     0.036060
      dyz     :     0.097908
      dx2y2   :     0.070961
      dxy     :     0.085445
      f0      :     0.004346  f :     0.041485
      f+1     :     0.002670
      f-1     :     0.009664
      f+2     :     0.005949
      f-2     :     0.006553
      f+3     :     0.005566
      f-3     :     0.006738
 27 C s       :     2.762110  s :     2.762110
      pz      :     0.937281  p :     2.883796
      px      :     0.930188
      py      :     1.016327
      dz2     :     0.085428  d :     0.483399
      dxz     :     0.045433
      dyz     :     0.143804
      dx2y2   :     0.080880
      dxy     :     0.127854
      f0      :     0.006695  f :     0.061243
      f+1     :     0.003268
      f-1     :     0.014844
      f+2     :     0.009132
      f-2     :     0.011493
      f+3     :     0.006499
      f-3     :     0.009313
 28 H s       :     0.787429  s :     0.787429
      pz      :     0.023633  p :     0.061100
      px      :     0.015832
      py      :     0.021635
 29 C s       :     2.763050  s :     2.763050
      pz      :     0.900627  p :     2.884949
      px      :     0.919221
      py      :     1.065100
      dz2     :     0.107306  d :     0.486300
      dxz     :     0.079215
      dyz     :     0.163141
      dx2y2   :     0.070738
      dxy     :     0.065900
      f0      :     0.014608  f :     0.061315
      f+1     :     0.009658
      f-1     :     0.010924
      f+2     :     0.008383
      f-2     :     0.005925
      f+3     :     0.006211
      f-3     :     0.005606
 30 H s       :     0.787814  s :     0.787814
      pz      :     0.031266  p :     0.061194
      px      :     0.018416
      py      :     0.011512
 31 N s       :     2.849348  s :     2.849348
      pz      :     1.188166  p :     3.610839
      px      :     1.299002
      py      :     1.123671
      dz2     :     0.077854  d :     0.312760
      dxz     :     0.042895
      dyz     :     0.091315
      dx2y2   :     0.049122
      dxy     :     0.051574
      f0      :     0.003380  f :     0.021767
      f+1     :     0.002148
      f-1     :     0.004684
      f+2     :     0.003127
      f-2     :     0.003313
      f+3     :     0.002272
      f-3     :     0.002845
 32 H s       :     0.787044  s :     0.787044
      pz      :     0.031163  p :     0.059992
      px      :     0.018139
      py      :     0.010689
 33 H s       :     0.786862  s :     0.786862
      pz      :     0.020855  p :     0.059963
      px      :     0.014018
      py      :     0.025089
 34 C s       :     2.760555  s :     2.760555
      pz      :     1.043066  p :     2.939034
      px      :     1.005843
      py      :     0.890125
      dz2     :     0.083226  d :     0.452933
      dxz     :     0.056833
      dyz     :     0.067411
      dx2y2   :     0.103640
      dxy     :     0.141823
      f0      :     0.006554  f :     0.053398
      f+1     :     0.003411
      f-1     :     0.004597
      f+2     :     0.008221
      f-2     :     0.007479
      f+3     :     0.011397
      f-3     :     0.011740
 35 C s       :     2.710586  s :     2.710586
      pz      :     0.897279  p :     2.865048
      px      :     0.963566
      py      :     1.004204
      dz2     :     0.072112  d :     0.517059
      dxz     :     0.087548
      dyz     :     0.082050
      dx2y2   :     0.150005
      dxy     :     0.125344
      f0      :     0.004907  f :     0.057381
      f+1     :     0.006648
      f-1     :     0.005366
      f+2     :     0.010721
      f-2     :     0.006419
      f+3     :     0.010013
      f-3     :     0.013307
 36 H s       :     0.788019  s :     0.788019
      pz      :     0.035287  p :     0.058709
      px      :     0.012728
      py      :     0.010695
 37 H s       :     0.786848  s :     0.786848
      pz      :     0.018911  p :     0.058901
      px      :     0.020262
      py      :     0.019729
 38 C s       :     2.752839  s :     2.752839
      pz      :     0.931412  p :     2.935580
      px      :     1.029778
      py      :     0.974390
      dz2     :     0.049239  d :     0.384430
      dxz     :     0.081924
      dyz     :     0.039501
      dx2y2   :     0.106606
      dxy     :     0.107161
      f0      :     0.004382  f :     0.043595
      f+1     :     0.004558
      f-1     :     0.003917
      f+2     :     0.007889
      f-2     :     0.005309
      f+3     :     0.008695
      f-3     :     0.008846
 39 C s       :     2.753454  s :     2.753454
      pz      :     0.924386  p :     2.937238
      px      :     1.021091
      py      :     0.991761
      dz2     :     0.029427  d :     0.385375
      dxz     :     0.072664
      dyz     :     0.059239
      dx2y2   :     0.095095
      dxy     :     0.128950
      f0      :     0.003583  f :     0.043461
      f+1     :     0.004688
      f-1     :     0.004094
      f+2     :     0.007668
      f-2     :     0.004231
      f+3     :     0.008148
      f-3     :     0.011049
 40 C s       :     2.762002  s :     2.762002
      pz      :     0.931445  p :     2.946552
      px      :     1.040734
      py      :     0.974373
      dz2     :     0.051723  d :     0.392366
      dxz     :     0.085694
      dyz     :     0.040088
      dx2y2   :     0.108205
      dxy     :     0.106657
      f0      :     0.004508  f :     0.044029
      f+1     :     0.004584
      f-1     :     0.004054
      f+2     :     0.008156
      f-2     :     0.005256
      f+3     :     0.008764
      f-3     :     0.008708
 41 H s       :     0.788101  s :     0.788101
      pz      :     0.019912  p :     0.058820
      px      :     0.018396
      py      :     0.020512
 42 C s       :     2.762439  s :     2.762439
      pz      :     0.914358  p :     2.944442
      px      :     1.024185
      py      :     1.005899
      dz2     :     0.029725  d :     0.391311
      dxz     :     0.072643
      dyz     :     0.061422
      dx2y2   :     0.096882
      dxy     :     0.130638
      f0      :     0.003567  f :     0.043811
      f+1     :     0.004673
      f-1     :     0.004241
      f+2     :     0.007714
      f-2     :     0.004229
      f+3     :     0.008216
      f-3     :     0.011171
 43 H s       :     0.782718  s :     0.782718
      pz      :     0.014966  p :     0.060643
      px      :     0.015118
      py      :     0.030559
 44 C s       :     2.762406  s :     2.762406
      pz      :     0.940871  p :     2.956544
      px      :     0.983155
      py      :     1.032518
      dz2     :     0.056584  d :     0.388258
      dxz     :     0.040621
      dyz     :     0.077927
      dx2y2   :     0.121769
      dxy     :     0.091356
      f0      :     0.003972  f :     0.043863
      f+1     :     0.004461
      f-1     :     0.004857
      f+2     :     0.007560
      f-2     :     0.005968
      f+3     :     0.007083
      f-3     :     0.009963
 45 H s       :     0.791815  s :     0.791815
      pz      :     0.014769  p :     0.058736
      px      :     0.014357
      py      :     0.029609
 46 H s       :     0.790837  s :     0.790837
      pz      :     0.019656  p :     0.058831
      px      :     0.018486
      py      :     0.020690
 47 H s       :     0.792338  s :     0.792338
      pz      :     0.013862  p :     0.058983
      px      :     0.032386
      py      :     0.012735


                      *****************************
                      * MAYER POPULATION ANALYSIS *
                      *****************************

  NA   - Mulliken gross atomic population
  ZA   - Total nuclear charge
  QA   - Mulliken gross atomic charge
  VA   - Mayer's total valence
  BVA  - Mayer's bonded valence
  FA   - Mayer's free valence

  ATOM       NA         ZA         QA         VA         BVA        FA
  0 C      6.1646     6.0000    -0.1646     3.8830     3.8830    -0.0000
  1 C      6.1547     6.0000    -0.1547     3.9299     3.9299    -0.0000
  2 C      6.1245     6.0000    -0.1245     3.8703     3.8703    -0.0000
  3 H      0.8483     1.0000     0.1517     0.9636     0.9636    -0.0000
  4 C      6.2049     6.0000    -0.2049     3.8994     3.8994    -0.0000
  5 H      0.8542     1.0000     0.1458     0.9682     0.9682    -0.0000
  6 C      6.2742     6.0000    -0.2742     3.9859     3.9859    -0.0000
  7 H      0.8473     1.0000     0.1527     0.9638     0.9638    -0.0000
  8 C      5.8665     6.0000     0.1335     3.5666     3.5666    -0.0000
  9 H      0.8211     1.0000     0.1789     0.9546     0.9546    -0.0000
 10 H      0.8593     1.0000     0.1407     0.9704     0.9704    -0.0000
 11 C      6.1907     6.0000    -0.1907     3.8794     3.8794    -0.0000
 12 N      7.0344     7.0000    -0.0344     3.1883     3.1883    -0.0000
 13 H      0.8302     1.0000     0.1698     0.9505     0.9505    -0.0000
 14 H      0.8434     1.0000     0.1566     0.9542     0.9542    -0.0000
 15 C      6.1270     6.0000    -0.1270     4.0071     4.0071    -0.0000
 16 C      6.1232     6.0000    -0.1232     4.0282     4.0282    -0.0000
 17 C      6.2672     6.0000    -0.2672     3.9177     3.9177    -0.0000
 18 H      0.8313     1.0000     0.1687     0.9686     0.9686    -0.0000
 19 C      6.2891     6.0000    -0.2891     3.9428     3.9428    -0.0000
 20 H      0.8414     1.0000     0.1586     0.9710     0.9710    -0.0000
 21 C      5.8777     6.0000     0.1223     3.6515     3.6515    -0.0000
 22 H      0.8634     1.0000     0.1366     0.9842     0.9842    -0.0000
 23 H      0.8644     1.0000     0.1356     0.9846     0.9846    -0.0000
 24 C      5.8743     6.0000     0.1257     3.6433     3.6433    -0.0000
 25 C      6.2801     6.0000    -0.2801     3.9369     3.9369    -0.0000
 26 C      6.2783     6.0000    -0.2783     3.9215     3.9215    -0.0000
 27 C      6.1156     6.0000    -0.1156     4.0083     4.0083    -0.0000
 28 H      0.8621     1.0000     0.1379     0.9835     0.9835    -0.0000
 29 C      6.1312     6.0000    -0.1312     4.0150     4.0150    -0.0000
 30 H      0.8650     1.0000     0.1350     0.9851     0.9851    -0.0000
 31 N      7.0451     7.0000    -0.0451     3.2004     3.2004    -0.0000
 32 H      0.8370     1.0000     0.1630     0.9691     0.9691    -0.0000
 33 H      0.8327     1.0000     0.1673     0.9683     0.9683    -0.0000
 34 C      6.1599     6.0000    -0.1599     3.8948     3.8948    -0.0000
 35 C      5.8806     6.0000     0.1194     3.5991     3.5991    -0.0000
 36 H      0.8342     1.0000     0.1658     0.9527     0.9527    -0.0000
 37 H      0.8470     1.0000     0.1530     0.9554     0.9554    -0.0000
 38 C      6.1948     6.0000    -0.1948     3.9118     3.9118    -0.0000
 39 C      6.2670     6.0000    -0.2670     3.9861     3.9861    -0.0000
 40 C      6.1232     6.0000    -0.1232     3.8791     3.8791    -0.0000
 41 H      0.8595     1.0000     0.1405     0.9703     0.9703    -0.0000
 42 C      6.1595     6.0000    -0.1595     3.9353     3.9353    -0.0000
 43 H      0.8320     1.0000     0.1680     0.9588     0.9588    -0.0000
 44 C      6.1494     6.0000    -0.1494     3.8857     3.8857    -0.0000
 45 H      0.8583     1.0000     0.1417     0.9671     0.9671    -0.0000
 46 H      0.8531     1.0000     0.1469     0.9680     0.9680    -0.0000
 47 H      0.8572     1.0000     0.1428     0.9664     0.9664    -0.0000

  Mayer bond orders larger than 0.100000
B(  0-C ,  1-C ) :   1.3998 B(  0-C ,  2-C ) :   1.3749 B(  0-C ,  3-H ) :   0.9800 
B(  1-C ,  4-C ) :   1.4372 B(  1-C ,  5-H ) :   0.9829 B(  2-C ,  6-C ) :   1.4325 
B(  2-C ,  7-H ) :   0.9852 B(  4-C ,  8-C ) :   1.3524 B(  4-C ,  9-H ) :   0.9593 
B(  6-C ,  8-C ) :   1.3717 B(  6-C , 10-H ) :   0.9837 B(  8-C , 11-C ) :   0.9079 
B( 11-C , 12-N ) :   0.9468 B( 11-C , 13-H ) :   0.9908 B( 11-C , 14-H ) :   0.9456 
B( 12-N , 15-C ) :   1.0871 B( 12-N , 16-C ) :   1.1065 B( 15-C , 17-C ) :   1.8341 
B( 15-C , 18-H ) :   0.9480 B( 16-C , 19-C ) :   1.8443 B( 16-C , 20-H ) :   0.9414 
B( 17-C , 21-C ) :   1.0432 B( 17-C , 22-H ) :   0.9521 B( 19-C , 21-C ) :   1.0372 
B( 19-C , 23-H ) :   0.9568 B( 21-C , 24-C ) :   1.5617 B( 24-C , 25-C ) :   1.0354 
B( 24-C , 26-C ) :   1.0422 B( 25-C , 27-C ) :   1.8414 B( 25-C , 28-H ) :   0.9547 
B( 26-C , 29-C ) :   1.8318 B( 26-C , 30-H ) :   0.9542 B( 27-C , 31-N ) :   1.0932 
B( 27-C , 32-H ) :   0.9433 B( 29-C , 31-N ) :   1.1001 B( 29-C , 33-H ) :   0.9458 
B( 31-N , 34-C ) :   0.9506 B( 34-C , 35-C ) :   0.9208 B( 34-C , 36-H ) :   0.9819 
B( 34-C , 37-H ) :   0.9488 B( 35-C , 38-C ) :   1.3682 B( 35-C , 39-C ) :   1.3673 
B( 38-C , 42-C ) :   1.4349 B( 38-C , 43-H ) :   0.9604 B( 39-C , 40-C ) :   1.4368 
B( 39-C , 41-H ) :   0.9872 B( 40-C , 44-C ) :   1.3751 B( 40-C , 45-H ) :   0.9872 
B( 42-C , 44-C ) :   1.4014 B( 42-C , 46-H ) :   0.9842 B( 44-C , 47-H ) :   0.9839 


-------
TIMINGS
-------

Total SCF time: 0 days 0 hours 54 min 35 sec 

Total time                  ....    3275.729 sec
Sum of individual times     ....    3271.789 sec  ( 99.9%)

Fock matrix formation       ....    3255.936 sec  ( 99.4%)
  XC integration            ....      20.137 sec  (  0.6% of F)
    Basis function eval.    ....       3.786 sec  ( 18.8% of XC)
    Density eval.           ....       6.703 sec  ( 33.3% of XC)
    XC-Functional eval.     ....       0.911 sec  (  4.5% of XC)
    XC-Potential eval.      ....       7.443 sec  ( 37.0% of XC)
Diagonalization             ....       1.427 sec  (  0.0%)
Density matrix formation    ....       0.163 sec  (  0.0%)
Population analysis         ....       0.687 sec  (  0.0%)
Initial guess               ....       1.036 sec  (  0.0%)
Orbital Transformation      ....       0.000 sec  (  0.0%)
Orbital Orthonormalization  ....       0.955 sec  (  0.0%)
DIIS solution               ....       0.375 sec  (  0.0%)
SOSCF solution              ....       5.327 sec  (  0.2%)
Grid generation             ....       6.838 sec  (  0.2%)


-------------------------------------------------------------------------------
                          DFT DISPERSION CORRECTION                            
                                                                               
                              DFTD3 V3.1  Rev 1                                
                              USING zero damping                               
-------------------------------------------------------------------------------
The omegaB97X-D3 functional is recognized. Fit by Chai et al.
Active option DFTDOPT                   ...         3   

molecular C6(AA) [au] = 27340.954422 


            DFT-D V3
 parameters
 s6 scaling factor         :     1.0000 
 rs6 scaling factor        :     1.2810 
 s8 scaling factor         :     1.0000 
 rs8 scaling factor        :     1.0940 
 Damping factor alpha6     :    14.0000 
 Damping factor alpha8     :    16.0000 
 ad hoc parameters k1-k3   :    16.0000     1.3333    -4.0000 

 Edisp/kcal,au: -12.834268329418  -0.020452706279 
 E6   /kcal   :  -6.160454875 
 E8   /kcal   :  -6.673813454 
 % E8         :  51.999952650 

-------------------------   ----------------
Dispersion correction           -0.020452706
-------------------------   ----------------


-------------------------   --------------------
FINAL SINGLE POINT ENERGY     -1037.328817755598
-------------------------   --------------------

                                *** OPTIMIZATION RUN DONE ***

                            ***************************************
                            *     ORCA property calculations      *
                            ***************************************

                                    ---------------------
                                    Active property flags
                                    ---------------------
   (+) Dipole Moment


------------------------------------------------------------------------------
                       ORCA ELECTRIC PROPERTIES CALCULATION
------------------------------------------------------------------------------

Dipole Moment Calculation                       ... on
Quadrupole Moment Calculation                   ... off
Polarizability Calculation                      ... off
GBWName                                         ... BV.gbw
Electron density file                           ... BV.scfp
The origin for moment calculation is the CENTER OF MASS  = ( 5.516919, -7.315098 -1.952727)

-------------
DIPOLE MOMENT
-------------
                                X             Y             Z
Electronic contribution:     -2.08734      -0.39134      -0.62843
Nuclear contribution   :      1.99893       0.36062       0.60273
                        -----------------------------------------
Total Dipole Moment    :     -0.08841      -0.03073      -0.02570
                        -----------------------------------------
Magnitude (a.u.)       :      0.09707
Magnitude (Debye)      :      0.24672



--------------------
Rotational spectrum 
--------------------
 
Rotational constants in cm-1:     0.017542     0.002150     0.002000 
Rotational constants in MHz :   525.891254    64.450820    59.972589 

 Dipole components along the rotational axes: 
x,y,z [a.u.] :    -0.011382    -0.096358     0.002704 
x,y,z [Debye]:    -0.028930    -0.244923     0.006873 

 
--------------------------------------------------------------------------
[[31000,1],2]: A high-performance Open MPI point-to-point messaging module
was unable to find any relevant network interfaces:

Module: OpenFabrics (openib)
  Host: compute-1-8

Another transport will be used instead, although this may result in
lower performance.

NOTE: You can disable this warning by setting the MCA parameter
btl_base_warn_component_unused to 0.
--------------------------------------------------------------------------
[compute-1-8.local:18542] 3 more processes have sent help message help-mpi-btl-base.txt / btl:no-nics
[compute-1-8.local:18542] Set MCA parameter "orte_base_help_aggregate" to 0 to see all help / error messages

Timings for individual modules:

Sum of individual times         ...    83981.860 sec (=1399.698 min)
GTO integral calculation        ...       34.266 sec (=   0.571 min)   0.0 %
SCF iterations                  ...    52055.639 sec (= 867.594 min)  62.0 %
SCF Gradient evaluation         ...    31883.899 sec (= 531.398 min)  38.0 %
Geometry relaxation             ...        8.056 sec (=   0.134 min)   0.0 %
                             ****ORCA TERMINATED NORMALLY****
TOTAL RUN TIME: 0 days 23 hours 19 minutes 51 seconds 29 msec
