Warning: no access to tty (Bad file descriptor).
Thus no job control in this shell.

                                 *****************
                                 * O   R   C   A *
                                 *****************

           --- An Ab Initio, DFT and Semiempirical electronic structure package ---

                  #######################################################
                  #                        -***-                        #
                  #          Department of theory and spectroscopy      #
                  #               Directorship: Frank Neese             #
                  #        Max Planck Institute fuer Kohlenforschung    #
                  #                Kaiser Wilhelm Platz 1               #
                  #                 D-45470 Muelheim/Ruhr               #
                  #                      Germany                        #
                  #                                                     #
                  #                  All rights reserved                #
                  #                        -***-                        #
                  #######################################################


                         Program Version 4.2.1 -  RELEASE  -


 With contributions from (in alphabetic order):
   Daniel Aravena         : Magnetic Suceptibility
   Michael Atanasov       : Ab Initio Ligand Field Theory (pilot matlab implementation)
   Alexander A. Auer      : GIAO ZORA, VPT2
   Ute Becker             : Parallelization
   Giovanni Bistoni       : ED, misc. LED, open-shell LED, HFLD
   Martin Brehm           : Molecular dynamics
   Dmytro Bykov           : SCF Hessian
   Vijay G. Chilkuri      : MRCI spin determinant printing, contributions to CSF-ICE
   Dipayan Datta          : RHF DLPNO-CCSD density
   Achintya Kumar Dutta   : EOM-CC, STEOM-CC
   Dmitry Ganyushin       : Spin-Orbit,Spin-Spin,Magnetic field MRCI
   Miquel Garcia          : C-PCM Hessian, Gaussian charge scheme
   Yang Guo               : DLPNO-NEVPT2, CIM, IAO-localization
   Andreas Hansen         : Spin unrestricted coupled pair/coupled cluster methods
   Benjamin Helmich-Paris : CASSCF linear response (MC-RPA)
   Lee Huntington         : MR-EOM, pCC
   Robert Izsak           : Overlap fitted RIJCOSX, COSX-SCS-MP3, EOM
   Christian Kollmar      : KDIIS, OOCD, Brueckner-CCSD(T), CCSD density
   Simone Kossmann        : Meta GGA functionals, TD-DFT gradient, OOMP2, MP2 Hessian
   Martin Krupicka        : AUTO-CI
   Lucas Lang             : DCDCAS
   Dagmar Lenk            : GEPOL surface, SMD
   Dimitrios Liakos       : Extrapolation schemes; Compound Job, initial MDCI parallelization
   Dimitrios Manganas     : Further ROCIS development; embedding schemes
   Dimitrios Pantazis     : SARC Basis sets
   Taras Petrenko         : DFT Hessian,TD-DFT gradient, ASA, ECA, R-Raman, ABS, FL, XAS/XES, NRVS
   Peter Pinski           : DLPNO-MP2, DLPNO-MP2 Gradient
   Christoph Reimann      : Effective Core Potentials
   Marius Retegan         : Local ZFS, SOC
   Christoph Riplinger    : Optimizer, TS searches, QM/MM, DLPNO-CCSD(T), (RO)-DLPNO pert. Triples
   Tobias Risthaus        : Range-separated hybrids, TD-DFT gradient, RPA, STAB
   Michael Roemelt        : Original ROCIS implementation
   Masaaki Saitow         : Open-shell DLPNO-CCSD energy and density
   Barbara Sandhoefer     : DKH picture change effects
   Avijit Sen             : IP-ROCIS
   Kantharuban Sivalingam : CASSCF convergence, NEVPT2, FIC-MRCI
   Bernardo de Souza      : ESD, SOC TD-DFT
   Georgi Stoychev        : AutoAux, RI-MP2 NMR
   Willem Van den Heuvel  : Paramagnetic NMR
   Boris Wezisla          : Elementary symmetry handling
   Frank Wennmohs         : Technical directorship


 We gratefully acknowledge several colleagues who have allowed us to
 interface, adapt or use parts of their codes:
   Stefan Grimme, W. Hujo, H. Kruse,             : VdW corrections, initial TS optimization,
                  C. Bannwarth                     DFT functionals, gCP, sTDA/sTD-DF
   Ed Valeev, F. Pavosevic, A. Kumar             : LibInt (2-el integral package), F12 methods
   Garnet Chan, S. Sharma, J. Yang, R. Olivares  : DMRG
   Ulf Ekstrom                                   : XCFun DFT Library
   Mihaly Kallay                                 : mrcc  (arbitrary order and MRCC methods)
   Andreas Klamt, Michael Diedenhofen            : otool_cosmo (COSMO solvation model)
   Jiri Pittner, Ondrej Demel                    : Mk-CCSD
   Frank Weinhold                                : gennbo (NPA and NBO analysis)
   Christopher J. Cramer and Donald G. Truhlar   : smd solvation model
   Lars Goerigk                                  : TD-DFT with DH, B97 family of functionals
   V. Asgeirsson, H. Jonsson                     : NEB implementation
   FAccTs GmbH                                   : IRC, NEB, NEB-TS, Multilevel, MM, QM/MM, CI optimization
   S Lehtola, MJT Oliveira, MAL Marques          : LibXC Library


 Your calculation uses the libint2 library for the computation of 2-el integrals
 For citations please refer to: http://libint.valeyev.net

 Your ORCA version has been built with support for libXC version: 4.2.3
 For citations please refer to: https://tddft.org/programs/libxc/

 This ORCA versions uses:
   CBLAS   interface :  Fast vector & matrix operations
   LAPACKE interface :  Fast linear algebra routines
   SCALAPACK package :  Parallel linear algebra routines


Your calculation utilizes the atom-pairwise dispersion correction
with the zero-damping scheme (D30)
Cite in your paper:
S.Grimme, J.Antony, S.Ehrlich and H.Krieg, J.Chem.Phys., 132, (2010), 154104 
   

XCFun DFT library Copyright 2009-2010 Ulf Ekstrom and contributors.
See http://admol.org/xcfun for more information. This is free soft-
ware; see the source code for copying conditions. There is ABSOLUTELY
NO WARRANTY; not even for MERCHANTABILITY or FITNESS FOR A PARTICULAR
PURPOSE. For details see the documentation. Scientific users of this 
library should cite U. Ekstrom, L. Visscher, R. Bast, A. J. Thorvald-
sen and K. Ruud; J.Chem.Theor.Comp. 2010, DOI: 10.1021/ct100117s
XCFun Version 0.99 
----- Orbital basis set information -----
Your calculation utilizes the basis: def2-TZVP
   F. Weigend and R. Ahlrichs, Phys. Chem. Chem. Phys. 7, 3297 (2005).

----- AuxJ basis set information -----
Your calculation utilizes the auxiliary basis: def2/J
   F. Weigend, Phys. Chem. Chem. Phys. 8, 1057 (2006).

================================================================================
                                        WARNINGS
                       Please study these warnings very carefully!
================================================================================


WARNING: Geometry Optimization
  ===> : Switching off AutoStart
         For restart on a previous wavefunction, please use MOREAD

INFO   : the flag for use of LIBINT has been found!

================================================================================
                                       INPUT FILE
================================================================================
NAME = DCM.inp
|  1> # avogadro generated ORCA input file 
|  2> # Basic Mode
|  3> # 
|  4> ! wB97X-D3 OPT def2-TZVP def2/J CPCM
|  5> %cpcm
|  6>   epsilon 3
|  7> end
|  8> %pal
|  9>  nprocs 4
| 10> end
| 11>  
| 12> 
| 13> * xyz 0 1
| 14>    C       -5.24222        2.69585        0.00513
| 15>    C       -3.73766        2.65359       -0.07384
| 16>    C       -3.06900        3.82049        0.08709
| 17>    C       -1.59662        3.83743        0.01187
| 18>    C       -0.84796        4.95592        0.18628
| 19>    C        0.60281        4.91394        0.15874
| 20>    N        1.75943        4.86144        0.13352
| 21>    C       -1.45897        6.23872        0.41553
| 22>    N       -1.95599        7.26627        0.59928
| 23>    C       -0.96233        2.53683       -0.17982
| 24>    C       -1.68012        1.40227       -0.29448
| 25>    C       -0.81077        0.21123       -0.02400
| 26>    C       -0.27715       -1.01732       -0.25352
| 27>    C       -0.10892       -2.19554       -1.08822
| 28>    C        1.07951       -2.22825       -1.82545
| 29>    C        1.65787       -3.43341       -2.20506
| 30>    C        1.06704       -4.67326       -1.85774
| 31>    N        1.64105       -5.93463       -2.29044
| 32>    C        2.78245       -6.01450       -3.19818
| 33>    C        0.99417       -7.21564       -2.03618
| 34>    C       -0.12564       -4.61468       -1.08201
| 35>    C       -0.69272       -3.39780       -0.69864
| 36>    O       -3.05711        1.46191       -0.29594
| 37>    H       -5.61474        3.73396        0.18380
| 38>    H       -5.62298        2.06629        0.83641
| 39>    H       -5.65637        2.35351       -0.96075
| 40>    H       -3.60322        4.74694        0.28390
| 41>    H        0.12023        2.47612       -0.12211
| 42>    H       -0.29109        0.53397        0.87286
| 43>    H        0.41936       -1.23692        0.54813
| 44>    H        1.62796       -1.31578       -2.02842
| 45>    H        2.59454       -3.33365       -2.72398
| 46>    H        3.35003       -5.08648       -3.34073
| 47>    H        2.41440       -6.32799       -4.19620
| 48>    H        3.52414       -6.75329       -2.82684
| 49>    H        0.19945       -7.20454       -1.28130
| 50>    H        1.73298       -7.95541       -1.66322
| 51>    H        0.54694       -7.57424       -2.98505
| 52>    H       -0.63424       -5.47773       -0.69827
| 53>    H       -1.53564       -3.40306       -0.02004
| 54> *
| 55> 
| 56> 
| 57>                          ****END OF INPUT****
================================================================================

                       *****************************
                       * Geometry Optimization Run *
                       *****************************

Geometry optimization settings:
Update method            Update   .... BFGS
Choice of coordinates    CoordSys .... Z-matrix Internals
Initial Hessian          InHess   .... Almoef's Model

Convergence Tolerances:
Energy Change            TolE     ....  5.0000e-06 Eh
Max. Gradient            TolMAXG  ....  3.0000e-04 Eh/bohr
RMS Gradient             TolRMSG  ....  1.0000e-04 Eh/bohr
Max. Displacement        TolMAXD  ....  4.0000e-03 bohr
RMS Displacement         TolRMSD  ....  2.0000e-03 bohr
Strict Convergence                ....  False
------------------------------------------------------------------------------
                        ORCA OPTIMIZATION COORDINATE SETUP
------------------------------------------------------------------------------

The optimization will be done in new redundant internal coordinates
Making redundant internal coordinates   ...  (new redundants) done
Evaluating the initial hessian          ...  (Almloef) done
Evaluating the coordinates              ...  done
Calculating the B-matrix                .... done
Calculating the G-matrix                .... done
Diagonalizing the G-matrix              .... done
Small eigenvalue found = 2.424e-03
Small eigenvalue found = 3.883e-03
Small eigenvalue found = 8.075e-03
Small eigenvalue found = 1.067e-02
Small eigenvalue found = 1.688e-02
Small eigenvalue found = 2.431e-02
The first mode is                       ....   77
The number of degrees of freedom        ....  114

    -----------------------------------------------------------------
                    Redundant Internal Coordinates


    -----------------------------------------------------------------
         Definition                    Initial Value    Approx d2E/dq
    -----------------------------------------------------------------
      1. B(C   1,C   0)                  1.5072         0.406177   
      2. B(C   2,C   1)                  1.3545         0.711840   
      3. B(C   3,C   2)                  1.4744         0.458235   
      4. B(C   4,C   3)                  1.3572         0.704863   
      5. B(C   5,C   4)                  1.4516         0.498194   
      6. B(N   6,C   5)                  1.1581         1.311838   
      7. B(C   7,C   4)                  1.4393         0.521375   
      8. B(N   8,C   7)                  1.1561         1.321264   
      9. B(C   9,C   3)                  1.4597         0.483714   
     10. B(C  10,C   9)                  1.3474         0.730533   
     11. B(C  11,C  10)                  1.4992         0.418377   
     12. B(C  12,C  11)                  1.3590         0.700270   
     13. B(C  13,C  12)                  1.4537         0.494445   
     14. B(C  14,C  13)                  1.3989         0.604681   
     15. B(C  15,C  14)                  1.3896         0.625693   
     16. B(C  16,C  15)                  1.4167         0.566496   
     17. B(N  17,C  16)                  1.4518         0.445914   
     18. B(C  18,N  17)                  1.4605         0.431857   
     19. B(C  19,N  17)                  1.4574         0.436820   
     20. B(C  20,C  16)                  1.4240         0.551507   
     21. B(C  21,C  20)                  1.3962         0.610747   
     22. B(C  21,C  13)                  1.3921         0.619928   
     23. B(O  22,C  10)                  1.3783         0.584213   
     24. B(O  22,C   1)                  1.3902         0.559244   
     25. B(H  23,C   0)                  1.1173         0.325734   
     26. B(H  24,C   0)                  1.1101         0.334452   
     27. B(H  25,C   0)                  1.1053         0.340445   
     28. B(H  26,C   2)                  1.0874         0.363558   
     29. B(H  27,C   9)                  1.0858         0.365705   
     30. B(H  28,C  11)                  1.0856         0.365931   
     31. B(H  29,C  12)                  1.0844         0.367541   
     32. B(H  30,C  14)                  1.0838         0.368413   
     33. B(H  31,C  15)                  1.0754         0.379879   
     34. B(H  32,C  18)                  1.0971         0.350794   
     35. B(H  33,C  18)                  1.1090         0.335878   
     36. B(H  34,C  18)                  1.1108         0.333647   
     37. B(H  35,C  19)                  1.0962         0.352054   
     38. B(H  36,C  19)                  1.1100         0.334536   
     39. B(H  37,C  19)                  1.1086         0.336334   
     40. B(H  38,C  20)                  1.0727         0.383663   
     41. B(H  39,C  21)                  1.0821         0.370641   
     42. A(C   1,C   0,H  24)          111.4519         0.324841   
     43. A(H  23,C   0,H  24)          107.0265         0.283037   
     44. A(C   1,C   0,H  23)          111.5461         0.323435   
     45. A(C   1,C   0,H  25)          108.6369         0.325790   
     46. A(H  24,C   0,H  25)          110.5001         0.284986   
     47. A(H  23,C   0,H  25)          107.6134         0.283818   
     48. A(C   2,C   1,O  22)          121.0515         0.433948   
     49. A(C   0,C   1,C   2)          117.5425         0.412525   
     50. A(C   0,C   1,O  22)          121.4050         0.392811   
     51. A(C   3,C   2,H  26)          119.3442         0.335987   
     52. A(C   1,C   2,H  26)          120.8616         0.361880   
     53. A(C   1,C   2,C   3)          119.7899         0.421477   
     54. A(C   2,C   3,C   9)          115.4937         0.393637   
     55. A(C   4,C   3,C   9)          120.7630         0.424824   
     56. A(C   2,C   3,C   4)          123.6273         0.420736   
     57. A(C   3,C   4,C   7)          121.3876         0.430572   
     58. A(C   3,C   4,C   5)          121.6702         0.427074   
     59. A(C   5,C   4,C   7)          116.9411         0.404771   
     60. L(C   4,C   5,N   6,C   7, 2) 179.9990         0.474908   
     61. L(C   4,C   5,N   6,C   7, 1) 180.9549         0.474908   
     62. L(C   4,C   7,N   8,C   5, 2) 180.0009         0.479533   
     63. L(C   4,C   7,N   8,C   5, 1) 180.3401         0.479533   
     64. A(C   3,C   9,C  10)          122.0016         0.427554   
     65. A(C   3,C   9,H  27)          118.4303         0.339364   
     66. A(C  10,C   9,H  27)          119.2461         0.363852   
     67. A(C   9,C  10,C  11)          110.1627         0.416615   
     68. A(C  11,C  10,O  22)          127.8730         0.397891   
     69. A(C   9,C  10,O  22)          119.7266         0.439426   
     70. A(C  10,C  11,C  12)          156.2713         0.413493   
     71. A(C  12,C  11,H  28)          102.7276         0.361270   
     72. A(C  10,C  11,H  28)          100.9793         0.331309   
     73. A(C  11,C  12,H  29)          108.0846         0.361541   
     74. A(C  13,C  12,H  29)          100.7198         0.340896   
     75. A(C  11,C  12,C  13)          151.0620         0.425997   
     76. A(C  14,C  13,C  21)          118.9173         0.432109   
     77. A(C  12,C  13,C  21)          119.3894         0.416829   
     78. A(C  12,C  13,C  14)          114.8262         0.414987   
     79. A(C  15,C  14,H  30)          117.9301         0.354825   
     80. A(C  13,C  14,H  30)          120.5919         0.352778   
     81. A(C  13,C  14,C  15)          121.1866         0.432828   
     82. A(C  16,C  15,H  31)          124.2442         0.350721   
     83. A(C  14,C  15,H  31)          114.4476         0.356676   
     84. A(C  14,C  15,C  16)          121.2295         0.427789   
     85. A(N  17,C  16,C  20)          121.9555         0.398320   
     86. A(C  15,C  16,C  20)          116.5432         0.418248   
     87. A(C  15,C  16,N  17)          121.4948         0.400203   
     88. A(C  18,N  17,C  19)          114.0309         0.377905   
     89. A(C  16,N  17,C  19)          122.4234         0.380007   
     90. A(C  16,N  17,C  18)          122.8015         0.379256   
     91. A(H  33,C  18,H  34)          109.5395         0.284282   
     92. A(H  32,C  18,H  34)          105.1055         0.286212   
     93. A(N  17,C  18,H  34)          110.5130         0.326039   
     94. A(H  32,C  18,H  33)          107.0905         0.286509   
     95. A(N  17,C  18,H  33)          108.3867         0.326397   
     96. A(N  17,C  18,H  32)          116.0267         0.328743   
     97. A(N  17,C  19,H  37)          108.3038         0.327084   
     98. A(H  35,C  19,H  36)          104.9461         0.286491   
     99. A(N  17,C  19,H  36)          110.4241         0.326796   
    100. A(N  17,C  19,H  35)          115.6606         0.329559   
    101. A(H  35,C  19,H  37)          107.4718         0.286730   
    102. A(H  36,C  19,H  37)          109.9081         0.284459   
    103. A(C  16,C  20,C  21)          121.7108         0.423901   
    104. A(C  21,C  20,H  38)          114.2307         0.355813   
    105. A(C  16,C  20,H  38)          123.9783         0.349722   
    106. A(C  13,C  21,C  20)          120.3667         0.432885   
    107. A(C  20,C  21,H  39)          118.9682         0.353735   
    108. A(C  13,C  21,H  39)          120.4201         0.354631   
    109. A(C   1,O  22,C  10)          121.7362         0.416147   
    110. D(O  22,C   1,C   0,H  25)    -61.3136         0.012228   
    111. D(C   2,C   1,C   0,H  23)      0.5858         0.012228   
    112. D(O  22,C   1,C   0,H  23)   -179.7701         0.012228   
    113. D(C   2,C   1,C   0,H  24)   -118.9781         0.012228   
    114. D(O  22,C   1,C   0,H  24)     60.6661         0.012228   
    115. D(C   2,C   1,C   0,H  25)    119.0422         0.012228   
    116. D(C   3,C   2,C   1,C   0)   -179.6656         0.035791   
    117. D(H  26,C   2,C   1,C   0)      1.0940         0.035791   
    118. D(H  26,C   2,C   1,O  22)   -178.5515         0.035791   
    119. D(C   3,C   2,C   1,O  22)      0.6889         0.035791   
    120. D(C   9,C   3,C   2,H  26)    176.6461         0.014305   
    121. D(C   4,C   3,C   2,H  26)      0.5437         0.014305   
    122. D(C   4,C   3,C   2,C   1)   -178.7082         0.014305   
    123. D(C   9,C   3,C   2,C   1)     -2.6059         0.014305   
    124. D(C   5,C   4,C   3,C   2)    177.3692         0.035033   
    125. D(C   5,C   4,C   3,C   9)      1.4638         0.035033   
    126. D(C   7,C   4,C   3,C   2)     -2.2464         0.035033   
    127. D(C   7,C   4,C   3,C   9)   -178.1518         0.035033   
    128. D(H  27,C   9,C   3,C   4)      3.4955         0.015931   
    129. D(H  27,C   9,C   3,C   2)   -172.7278         0.015931   
    130. D(C  10,C   9,C   3,C   4)    176.9272         0.015931   
    131. D(C  10,C   9,C   3,C   2)      0.7039         0.015931   
    132. D(O  22,C  10,C   9,H  27)    176.5121         0.037871   
    133. D(O  22,C  10,C   9,C   3)      3.1323         0.037871   
    134. D(C  11,C  10,C   9,H  27)     12.1963         0.037871   
    135. D(C  11,C  10,C   9,C   3)   -161.1835         0.037871   
    136. D(H  28,C  11,C  10,O  22)   -116.7947         0.011983   
    137. D(H  28,C  11,C  10,C   9)     45.9038         0.011983   
    138. D(C  12,C  11,C  10,O  22)     65.6889         0.011983   
    139. D(C  12,C  11,C  10,C   9)   -131.6127         0.011983   
    140. D(C  13,C  12,C  11,C  10)      5.7455         0.034540   
    141. D(H  29,C  12,C  11,H  28)      2.5236         0.034540   
    142. D(H  29,C  12,C  11,C  10)   -179.9758         0.034540   
    143. D(C  13,C  12,C  11,H  28)   -171.7550         0.034540   
    144. D(C  21,C  13,C  12,H  29)     76.2357         0.016649   
    145. D(C  21,C  13,C  12,C  11)   -109.2990         0.016649   
    146. D(C  14,C  13,C  12,H  29)    -74.4608         0.016649   
    147. D(C  14,C  13,C  12,C  11)    100.0045         0.016649   
    148. D(H  30,C  14,C  13,C  21)   -171.7222         0.025228   
    149. D(H  30,C  14,C  13,C  12)    -20.8784         0.025228   
    150. D(C  15,C  14,C  13,C  21)      1.9491         0.025228   
    151. D(C  15,C  14,C  13,C  12)    152.7929         0.025228   
    152. D(H  31,C  15,C  14,H  30)     -3.1831         0.027121   
    153. D(H  31,C  15,C  14,C  13)   -177.0177         0.027121   
    154. D(C  16,C  15,C  14,H  30)    173.7217         0.027121   
    155. D(C  16,C  15,C  14,C  13)     -0.1128         0.027121   
    156. D(C  20,C  16,C  15,H  31)    175.3441         0.022003   
    157. D(C  20,C  16,C  15,C  14)     -1.2471         0.022003   
    158. D(N  17,C  16,C  15,H  31)     -5.5656         0.022003   
    159. D(N  17,C  16,C  15,C  14)    177.8433         0.022003   
    160. D(C  19,N  17,C  16,C  20)      4.0369         0.015659   
    161. D(C  19,N  17,C  16,C  15)   -175.0040         0.015659   
    162. D(C  18,N  17,C  16,C  20)    173.5600         0.015659   
    163. D(C  18,N  17,C  16,C  15)     -5.4808         0.015659   
    164. D(H  34,C  18,N  17,C  19)    -55.1133         0.015901   
    165. D(H  34,C  18,N  17,C  16)    134.5616         0.015901   
    166. D(H  33,C  18,N  17,C  19)     64.9312         0.015901   
    167. D(H  33,C  18,N  17,C  16)   -105.3938         0.015901   
    168. D(H  32,C  18,N  17,C  19)   -174.6076         0.015901   
    169. D(H  32,C  18,N  17,C  16)     15.0673         0.015901   
    170. D(H  36,C  19,N  17,C  16)   -134.5473         0.016269   
    171. D(H  35,C  19,N  17,C  18)    174.0479         0.016269   
    172. D(H  35,C  19,N  17,C  16)    -15.5859         0.016269   
    173. D(H  37,C  19,N  17,C  18)    -65.3044         0.016269   
    174. D(H  37,C  19,N  17,C  16)    105.0618         0.016269   
    175. D(H  36,C  19,N  17,C  18)     55.0865         0.016269   
    176. D(H  38,C  20,C  16,N  17)      5.1748         0.020811   
    177. D(H  38,C  20,C  16,C  15)   -175.7394         0.020811   
    178. D(C  21,C  20,C  16,N  17)   -178.2727         0.020811   
    179. D(C  21,C  20,C  16,C  15)      0.8131         0.020811   
    180. D(H  39,C  21,C  20,H  38)      3.5239         0.025765   
    181. D(H  39,C  21,C  20,C  16)   -173.3414         0.025765   
    182. D(C  13,C  21,C  20,H  38)    177.8621         0.025765   
    183. D(C  13,C  21,C  20,C  16)      0.9967         0.025765   
    184. D(H  39,C  21,C  13,C  14)    171.8862         0.026593   
    185. D(H  39,C  21,C  13,C  12)     22.3822         0.026593   
    186. D(C  20,C  21,C  13,C  14)     -2.3692         0.026593   
    187. D(C  20,C  21,C  13,C  12)   -151.8732         0.026593   
    188. D(C   1,O  22,C  10,C  11)    155.9704         0.024844   
    189. D(C   1,O  22,C  10,C   9)     -5.2771         0.024844   
    190. D(C  10,O  22,C   1,C   2)      3.3503         0.022657   
    191. D(C  10,O  22,C   1,C   0)   -176.2814         0.022657   
    -----------------------------------------------------------------

Number of atoms                         .... 40
Number of degrees of freedom            .... 191

         *************************************************************
         *                GEOMETRY OPTIMIZATION CYCLE   1            *
         *************************************************************
---------------------------------
CARTESIAN COORDINATES (ANGSTROEM)
---------------------------------
  C     -5.242220    2.695850    0.005130
  C     -3.737660    2.653590   -0.073840
  C     -3.069000    3.820490    0.087090
  C     -1.596620    3.837430    0.011870
  C     -0.847960    4.955920    0.186280
  C      0.602810    4.913940    0.158740
  N      1.759430    4.861440    0.133520
  C     -1.458970    6.238720    0.415530
  N     -1.955990    7.266270    0.599280
  C     -0.962330    2.536830   -0.179820
  C     -1.680120    1.402270   -0.294480
  C     -0.810770    0.211230   -0.024000
  C     -0.277150   -1.017320   -0.253520
  C     -0.108920   -2.195540   -1.088220
  C      1.079510   -2.228250   -1.825450
  C      1.657870   -3.433410   -2.205060
  C      1.067040   -4.673260   -1.857740
  N      1.641050   -5.934630   -2.290440
  C      2.782450   -6.014500   -3.198180
  C      0.994170   -7.215640   -2.036180
  C     -0.125640   -4.614680   -1.082010
  C     -0.692720   -3.397800   -0.698640
  O     -3.057110    1.461910   -0.295940
  H     -5.614740    3.733960    0.183800
  H     -5.622980    2.066290    0.836410
  H     -5.656370    2.353510   -0.960750
  H     -3.603220    4.746940    0.283900
  H      0.120230    2.476120   -0.122110
  H     -0.291090    0.533970    0.872860
  H      0.419360   -1.236920    0.548130
  H      1.627960   -1.315780   -2.028420
  H      2.594540   -3.333650   -2.723980
  H      3.350030   -5.086480   -3.340730
  H      2.414400   -6.327990   -4.196200
  H      3.524140   -6.753290   -2.826840
  H      0.199450   -7.204540   -1.281300
  H      1.732980   -7.955410   -1.663220
  H      0.546940   -7.574240   -2.985050
  H     -0.634240   -5.477730   -0.698270
  H     -1.535640   -3.403060   -0.020040

----------------------------
CARTESIAN COORDINATES (A.U.)
----------------------------
  NO LB      ZA    FRAG     MASS         X           Y           Z
   0 C     6.0000    0    12.011   -9.906360    5.094418    0.009694
   1 C     6.0000    0    12.011   -7.063154    5.014558   -0.139537
   2 C     6.0000    0    12.011   -5.799570    7.219680    0.164576
   3 C     6.0000    0    12.011   -3.017175    7.251692    0.022431
   4 C     6.0000    0    12.011   -1.602412    9.365332    0.352018
   5 C     6.0000    0    12.011    1.139146    9.286001    0.299975
   6 N     7.0000    0    14.007    3.324841    9.186790    0.252316
   7 C     6.0000    0    12.011   -2.757054   11.789472    0.785238
   8 N     7.0000    0    14.007   -3.696285   13.731260    1.132475
   9 C     6.0000    0    12.011   -1.818540    4.793914   -0.339811
  10 C     6.0000    0    12.011   -3.174967    2.649906   -0.556487
  11 C     6.0000    0    12.011   -1.532133    0.399167   -0.045353
  12 C     6.0000    0    12.011   -0.523738   -1.922456   -0.479083
  13 C     6.0000    0    12.011   -0.205829   -4.148969   -2.056438
  14 C     6.0000    0    12.011    2.039978   -4.210782   -3.449601
  15 C     6.0000    0    12.011    3.132920   -6.488205   -4.166960
  16 C     6.0000    0    12.011    2.016413   -8.831182   -3.510620
  17 N     7.0000    0    14.007    3.101135  -11.214825   -4.328304
  18 C     6.0000    0    12.011    5.258068  -11.365758   -6.043684
  19 C     6.0000    0    12.011    1.878709  -13.635583   -3.847823
  20 C     6.0000    0    12.011   -0.237425   -8.720481   -2.044703
  21 C     6.0000    0    12.011   -1.309051   -6.420911   -1.320238
  22 O     8.0000    0    15.999   -5.777101    2.762610   -0.559246
  23 H     1.0000    0     1.008  -10.610321    7.056162    0.347332
  24 H     1.0000    0     1.008  -10.625892    3.904722    1.580586
  25 H     1.0000    0     1.008  -10.688990    4.447489   -1.815554
  26 H     1.0000    0     1.008   -6.809099    8.970417    0.536493
  27 H     1.0000    0     1.008    0.227202    4.679189   -0.230754
  28 H     1.0000    0     1.008   -0.550080    1.009057    1.649466
  29 H     1.0000    0     1.008    0.792476   -2.337440    1.035816
  30 H     1.0000    0     1.008    3.076399   -2.486464   -3.833158
  31 H     1.0000    0     1.008    4.902970   -6.299686   -5.147576
  32 H     1.0000    0     1.008    6.330639   -9.612054   -6.313065
  33 H     1.0000    0     1.008    4.562555  -11.958168   -7.929669
  34 H     1.0000    0     1.008    6.659659  -12.761869   -5.341953
  35 H     1.0000    0     1.008    0.376906  -13.614608   -2.421306
  36 H     1.0000    0     1.008    3.274858  -15.033546   -3.143030
  37 H     1.0000    0     1.008    1.033567  -14.313239   -5.640927
  38 H     1.0000    0     1.008   -1.198540  -10.351410   -1.319539
  39 H     1.0000    0     1.008   -2.901939   -6.430851   -0.037870

--------------------------------
INTERNAL COORDINATES (ANGSTROEM)
--------------------------------
 C      0   0   0     0.000000000000     0.00000000     0.00000000
 C      1   0   0     1.507223593930     0.00000000     0.00000000
 C      2   1   0     1.354496316163   117.54253757     0.00000000
 C      3   2   1     1.474397462152   119.78988278   180.33436652
 C      4   3   2     1.357177410584   123.62727025   181.29175434
 C      5   4   3     1.451638510408   121.67019898   177.36923692
 N      6   5   4     1.158085542091   179.04510849     0.33781840
 C      5   4   3     1.439258358531   121.38764759   357.75362392
 N      8   5   4     1.156136646509   179.65990148   359.71217556
 C      4   3   2     1.459667503303   115.49371141   357.39411277
 C     10   4   3     1.347440460020   122.00163879     0.70388055
 C     11  10   4     1.499168147507   110.16271758   198.81654788
 C     12  11  10     1.358957261028   156.27131476   228.38734252
 C     13  12  11     1.453694531633   151.06195049     5.74551611
 C     14  13  12     1.398908103451   114.82618403   100.00449080
 C     15  14  13     1.389609537712   121.18655077   152.79288240
 C     16  15  14     1.416664848791   121.22945007   359.88718362
 N     17  16  15     1.451816464640   121.49475913   177.84325029
 C     18  17  16     1.460535889494   122.80145833   354.51915549
 C     18  17  16     1.457425298978   122.42342299   184.99604845
 C     17  16  15     1.423964266300   116.54321089   358.75293239
 C     14  13  12     1.392129348875   119.38942665   250.70095979
 O     11  10   4     1.378281727841   119.72662585     3.13231831
 H      1   2   3     1.117303222675   111.54612910     0.58578727
 H      1   2   3     1.110112791387   111.45185737   241.02193120
 H      1   2   3     1.105278730683   108.63686177   119.04221496
 H      3   2   1     1.087398173164   120.86159002     1.09396288
 H     10   4   3     1.085795699844   118.43028622   187.27219844
 H     12  11  10     1.085627131938   100.97925168    45.90383446
 H     13  12  11     1.084432138310   108.08460635   180.02415206
 H     15  14  13     1.083787674916   120.59190277   339.12160442
 H     16  15  14     1.075444425761   114.44757697   182.98230466
 H     19  18  17     1.097127467207   116.02665252    15.06730509
 H     19  18  17     1.108954779511   108.38665864   254.60617890
 H     19  18  17     1.110769155045   110.51297626   134.56161765
 H     20  18  17     1.096150948912   115.66058103   344.41407807
 H     20  18  17     1.110044607482   110.42410277   225.45269112
 H     20  18  17     1.108585995672   108.30384388   105.06177618
 H     21  17  16     1.072746778182   123.97834797   184.26056132
 H     22  14  13     1.082145902363   120.42012045    22.38223852

---------------------------
INTERNAL COORDINATES (A.U.)
---------------------------
 C      0   0   0     0.000000000000     0.00000000     0.00000000
 C      1   0   0     2.848239815113     0.00000000     0.00000000
 C      2   1   0     2.559627086954   117.54253757     0.00000000
 C      3   2   1     2.786207416016   119.78988278   180.33436652
 C      4   3   2     2.564693621149   123.62727025   181.29175434
 C      5   4   3     2.743199230125   121.67019898   177.36923692
 N      6   5   4     2.188464514206   179.04510849     0.33781840
 C      5   4   3     2.719804133580   121.38764759   357.75362392
 N      8   5   4     2.184781635291   179.65990148   359.71217556
 C      4   3   2     2.758371827828   115.49371141   357.39411277
 C     10   4   3     2.546293451203   122.00163879     0.70388055
 C     11  10   4     2.833017227487   110.16271758   198.81654788
 C     12  11  10     2.568057051046   156.27131476   228.38734252
 C     13  12  11     2.747084547165   151.06195049     5.74551611
 C     14  13  12     2.643553202045   114.82618403   100.00449080
 C     15  14  13     2.625981459360   121.18655077   152.79288240
 C     16  15  14     2.677108587768   121.22945007   359.88718362
 N     17  16  15     2.743535514888   121.49475913   177.84325029
 C     18  17  16     2.760012839907   122.80145833   354.51915549
 C     18  17  16     2.754134675716   122.42342299   184.99604845
 C     17  16  15     2.690902487798   116.54321089   358.75293239
 C     14  13  12     2.630743212368   119.38942665   250.70095979
 O     11  10   4     2.604575001007   119.72662585     3.13231831
 H      1   2   3     2.111397099403   111.54612910     0.58578727
 H      1   2   3     2.097809153483   111.45185737   241.02193120
 H      1   2   3     2.088674102639   108.63686177   119.04221496
 H      3   2   1     2.054884745806   120.86159002     1.09396288
 H     10   4   3     2.051856510095   118.43028622   187.27219844
 H     12  11  10     2.051537962917   100.97925168    45.90383446
 H     13  12  11     2.049279752229   108.08460635   180.02415206
 H     15  14  13     2.048061892911   120.59190277   339.12160442
 H     16  15  14     2.032295436940   114.44757697   182.98230466
 H     19  18  17     2.073270447024   116.02665252    15.06730509
 H     19  18  17     2.095620828179   108.38665864   254.60617890
 H     19  18  17     2.099049501043   110.51297626   134.56161765
 H     20  18  17     2.071425094881   115.66058103   344.41407807
 H     20  18  17     2.097680304577   110.42410277   225.45269112
 H     20  18  17     2.094923927720   108.30384388   105.06177618
 H     21  17  16     2.027197621810   123.97834797   184.26056132
 H     22  14  13     2.044959392410   120.42012045    22.38223852

---------------------
BASIS SET INFORMATION
---------------------
There are 4 groups of distinct atoms

 Group   1 Type C   : 11s6p2d1f contracted to 5s3p2d1f pattern {62111/411/11/1}
 Group   2 Type N   : 11s6p2d1f contracted to 5s3p2d1f pattern {62111/411/11/1}
 Group   3 Type O   : 11s6p2d1f contracted to 5s3p2d1f pattern {62111/411/11/1}
 Group   4 Type H   : 5s1p contracted to 3s1p pattern {311/1}

Atom   0C    basis set group =>   1
Atom   1C    basis set group =>   1
Atom   2C    basis set group =>   1
Atom   3C    basis set group =>   1
Atom   4C    basis set group =>   1
Atom   5C    basis set group =>   1
Atom   6N    basis set group =>   2
Atom   7C    basis set group =>   1
Atom   8N    basis set group =>   2
Atom   9C    basis set group =>   1
Atom  10C    basis set group =>   1
Atom  11C    basis set group =>   1
Atom  12C    basis set group =>   1
Atom  13C    basis set group =>   1
Atom  14C    basis set group =>   1
Atom  15C    basis set group =>   1
Atom  16C    basis set group =>   1
Atom  17N    basis set group =>   2
Atom  18C    basis set group =>   1
Atom  19C    basis set group =>   1
Atom  20C    basis set group =>   1
Atom  21C    basis set group =>   1
Atom  22O    basis set group =>   3
Atom  23H    basis set group =>   4
Atom  24H    basis set group =>   4
Atom  25H    basis set group =>   4
Atom  26H    basis set group =>   4
Atom  27H    basis set group =>   4
Atom  28H    basis set group =>   4
Atom  29H    basis set group =>   4
Atom  30H    basis set group =>   4
Atom  31H    basis set group =>   4
Atom  32H    basis set group =>   4
Atom  33H    basis set group =>   4
Atom  34H    basis set group =>   4
Atom  35H    basis set group =>   4
Atom  36H    basis set group =>   4
Atom  37H    basis set group =>   4
Atom  38H    basis set group =>   4
Atom  39H    basis set group =>   4
---------------------------------
AUXILIARY/J BASIS SET INFORMATION
---------------------------------
There are 4 groups of distinct atoms

 Group   1 Type C   : 12s5p4d2f1g contracted to 6s4p3d1f1g pattern {711111/2111/211/2/1}
 Group   2 Type N   : 12s5p4d2f1g contracted to 6s4p3d1f1g pattern {711111/2111/211/2/1}
 Group   3 Type O   : 12s5p4d2f1g contracted to 6s4p3d1f1g pattern {711111/2111/211/2/1}
 Group   4 Type H   : 5s2p1d contracted to 3s1p1d pattern {311/2/1}

Atom   0C    basis set group =>   1
Atom   1C    basis set group =>   1
Atom   2C    basis set group =>   1
Atom   3C    basis set group =>   1
Atom   4C    basis set group =>   1
Atom   5C    basis set group =>   1
Atom   6N    basis set group =>   2
Atom   7C    basis set group =>   1
Atom   8N    basis set group =>   2
Atom   9C    basis set group =>   1
Atom  10C    basis set group =>   1
Atom  11C    basis set group =>   1
Atom  12C    basis set group =>   1
Atom  13C    basis set group =>   1
Atom  14C    basis set group =>   1
Atom  15C    basis set group =>   1
Atom  16C    basis set group =>   1
Atom  17N    basis set group =>   2
Atom  18C    basis set group =>   1
Atom  19C    basis set group =>   1
Atom  20C    basis set group =>   1
Atom  21C    basis set group =>   1
Atom  22O    basis set group =>   3
Atom  23H    basis set group =>   4
Atom  24H    basis set group =>   4
Atom  25H    basis set group =>   4
Atom  26H    basis set group =>   4
Atom  27H    basis set group =>   4
Atom  28H    basis set group =>   4
Atom  29H    basis set group =>   4
Atom  30H    basis set group =>   4
Atom  31H    basis set group =>   4
Atom  32H    basis set group =>   4
Atom  33H    basis set group =>   4
Atom  34H    basis set group =>   4
Atom  35H    basis set group =>   4
Atom  36H    basis set group =>   4
Atom  37H    basis set group =>   4
Atom  38H    basis set group =>   4
Atom  39H    basis set group =>   4
--------------------------------------------------------------------------
[[2567,1],1]: A high-performance Open MPI point-to-point messaging module
was unable to find any relevant network interfaces:

Module: OpenFabrics (openib)
  Host: compute-1-0

Another transport will be used instead, although this may result in
lower performance.

NOTE: You can disable this warning by setting the MCA parameter
btl_base_warn_component_unused to 0.
--------------------------------------------------------------------------


           ************************************************************
           *        Program running with 4 parallel MPI-processes     *
           *              working on a common directory               *
           ************************************************************
------------------------------------------------------------------------------
                           ORCA GTO INTEGRAL CALCULATION
------------------------------------------------------------------------------

                         BASIS SET STATISTICS AND STARTUP INFO

 # of primitive gaussian shells          ...  562
 # of primitive gaussian functions       ... 1194
 # of contracted shells                  ...  321
 # of contracted basis functions         ...  815
 Highest angular momentum                ...    3
 Maximum contraction depth               ...    6
 Integral package used                   ... LIBINT
 Integral threshhold            Thresh   ...  2.500e-11
 Primitive cut-off              TCut     ...  2.500e-12


------------------------------ INTEGRAL EVALUATION ----------------------------


 * One electron integrals 
 Pre-screening matrix                    ... done
 Shell pair data                         ... done (   0.014 sec)

[compute-1-0.local:59392] 3 more processes have sent help message help-mpi-btl-base.txt / btl:no-nics
[compute-1-0.local:59392] Set MCA parameter "orte_base_help_aggregate" to 0 to see all help / error messages
--------------------------------------------------------------------------
[[2580,1],0]: A high-performance Open MPI point-to-point messaging module
was unable to find any relevant network interfaces:

Module: OpenFabrics (openib)
  Host: compute-1-0

Another transport will be used instead, although this may result in
lower performance.

NOTE: You can disable this warning by setting the MCA parameter
btl_base_warn_component_unused to 0.
--------------------------------------------------------------------------


           ************************************************************
           *        Program running with 4 parallel MPI-processes     *
           *              working on a common directory               *
           ************************************************************
-------------------------------------------------------------------------------
                                 ORCA SCF
-------------------------------------------------------------------------------

------------
SCF SETTINGS
------------
Hamiltonian:
 Density Functional     Method          .... DFT(GTOs)
 Exchange Functional    Exchange        .... WB97X-D3
 Correlation Functional Correlation     .... WB97X-D3
 Gradients option       PostSCFGGA      .... off
 Hybrid DFT is turned on
   Fraction HF Exchange ScalHFX         ....  0.195728
   Scaling of DF-GGA-X  ScalDFX         ....  0.000000
   Scaling of DF-GGA-C  ScalDFC         ....  1.000000
   Scaling of DF-LDA-C  ScalLDAC        ....  1.000000
   Perturbative correction              ....  0.000000
   Density functional embedding theory  .... OFF
 Long-range corrected/Screened/Range-Separated Hybrid DFT is turned on
   Amount of maximum screened exact exchange              ....  0.804272
   Range separation parameter mu (erf(mu*r12)/r12)        ....  0.250000


General Settings:
 Integral files         IntName         .... DCM
 Hartree-Fock type      HFTyp           .... RHF
 Total Charge           Charge          ....    0
 Multiplicity           Mult            ....    1
 Number of Electrons    NEL             ....  160
 Basis Dimension        Dim             ....  815
 Nuclear Repulsion      ENuc            ....   1585.3133621730 Eh

Convergence Acceleration:
 DIIS                   CNVDIIS         .... on
   Start iteration      DIISMaxIt       ....    12
   Startup error        DIISStart       ....  0.200000
   # of expansion vecs  DIISMaxEq       ....     5
   Bias factor          DIISBfac        ....   1.050
   Max. coefficient     DIISMaxC        ....  10.000
 Newton-Raphson         CNVNR           .... off
 SOSCF                  CNVSOSCF        .... on
   Start iteration      SOSCFMaxIt      ....   150
   Startup grad/error   SOSCFStart      ....  0.003300
 Level Shifting         CNVShift        .... on
   Level shift para.    LevelShift      ....    0.2500
   Turn off err/grad.   ShiftErr        ....    0.0010
 Zerner damping         CNVZerner       .... off
 Static damping         CNVDamp         .... on
   Fraction old density DampFac         ....    0.7000
   Max. Damping (<1)    DampMax         ....    0.9800
   Min. Damping (>=0)   DampMin         ....    0.0000
   Turn off err/grad.   DampErr         ....    0.1000
 Fernandez-Rico         CNVRico         .... off

SCF Procedure:
 Maximum # iterations   MaxIter         ....   125
 SCF integral mode      SCFMode         .... Direct
   Integral package                     .... LIBINT
 Reset frequency        DirectResetFreq ....    20
 Integral Threshold     Thresh          ....  2.500e-11 Eh
 Primitive CutOff       TCut            ....  2.500e-12 Eh

Convergence Tolerance:
 Convergence Check Mode ConvCheckMode   .... Total+1el-Energy
 Convergence forced     ConvForced      .... 0
 Energy Change          TolE            ....  1.000e-08 Eh
 1-El. energy change                    ....  1.000e-05 Eh
 Orbital Gradient       TolG            ....  1.000e-05
 Orbital Rotation angle TolX            ....  1.000e-05
 DIIS Error             TolErr          ....  5.000e-07


Diagonalization of the overlap matrix:
Smallest eigenvalue                        ... 9.160e-06
Time for diagonalization                   ...    0.347 sec
Threshold for overlap eigenvalues          ... 1.000e-08
Number of eigenvalues below threshold      ... 0
Time for construction of square roots      ...    0.124 sec
Total time needed                          ...    0.473 sec

-------------------
DFT GRID GENERATION
-------------------

General Integration Accuracy     IntAcc      ...  4.340
Radial Grid Type                 RadialGrid  ... Gauss-Chebyshev
Angular Grid (max. acc.)         AngularGrid ... Lebedev-110
Angular grid pruning method      GridPruning ... 3 (G Style)
Weight generation scheme         WeightScheme... Becke
Basis function cutoff            BFCut       ...    1.0000e-11
Integration weight cutoff        WCut        ...    1.0000e-14
Grids for H and He will be reduced by one unit

# of grid points (after initial pruning)     ...  51784 (   0.0 sec)
# of grid points (after weights+screening)   ...  46870 (   0.3 sec)
nearest neighbour list constructed           ...    0.0 sec
Grid point re-assignment to atoms done       ...    0.0 sec
Grid point division into batches done        ...    0.1 sec
Reduced shell lists constructed in    0.4 sec

Total number of grid points                  ...    46870
Total number of batches                      ...      753
Average number of points per batch           ...       62
Average number of grid points per atom       ...     1172
Average number of shells per batch           ...   113.52 (35.36%)
Average number of basis functions per batch  ...   294.43 (36.13%)
Average number of large shells per batch     ...    77.23 (68.03%)
Average number of large basis fcns per batch ...   204.32 (69.40%)
Maximum spatial batch extension              ...  19.57, 17.21, 19.43 au
Average spatial batch extension              ...   0.89,  0.85,  1.05 au

Time for grid setup =    0.731 sec

------------------------------
INITIAL GUESS: MODEL POTENTIAL
------------------------------
Loading Hartree-Fock densities                     ... done
Calculating cut-offs                               ... done
Setting up the integral package                    ... done
Initializing the effective Hamiltonian             ... done
Starting the Coulomb interaction                   ... done (   1.0 sec)
Reading the grid                                   ... done
Mapping shells                                     ... done
Starting the XC term evaluation                    ... done (   0.9 sec)
  promolecular density results
     # of electrons  =    159.981688183
     EX              =   -129.786043500
     EC              =     -5.303623296
     EX+EC           =   -135.089666795
Transforming the Hamiltonian                       ... done (   0.1 sec)
Diagonalizing the Hamiltonian                      ... done (   0.3 sec)
Back transforming the eigenvectors                 ... done (   0.0 sec)
Now organizing SCF variables                       ... done
                      ------------------
                      INITIAL GUESS DONE (   3.2 sec)
                      ------------------

--------------------
CPCM SOLVATION MODEL
--------------------
CPCM parameters:
  Epsilon                                         ...       3.0000
  Refrac                                          ...       1.3300
  Rsolv                                           ...       1.3000
  Surface type                                    ...    GEPOL SES
  Epsilon function type                           ...         CPCM
Radii:
 Radius for C  used is    3.7795 Bohr (=   2.0000 Ang.)
 Radius for N  used is    3.4582 Bohr (=   1.8300 Ang.)
 Radius for O  used is    3.2503 Bohr (=   1.7200 Ang.)
 Radius for H  used is    2.4566 Bohr (=   1.3000 Ang.)
Calculating surface                               ...        done! (  0.1s)
GEPOL surface points                              ...         1253
GEPOL Volume                                      ...    2562.5474
GEPOL Surface-area                                ...    1343.4772
Calculating surface distance matrix               ...        done! (  0.0s)
Performing Cholesky decomposition & store         ...        done! (  0.1s)
Overall time for CPCM initialization              ...                 0.2s
--------------
SCF ITERATIONS
--------------
ITER       Energy         Delta-E        Max-DP      RMS-DP      [F,P]     Damp
               ***  Starting incremental Fock matrix formation  ***
[compute-1-0.local:59411] 3 more processes have sent help message help-mpi-btl-base.txt / btl:no-nics
[compute-1-0.local:59411] Set MCA parameter "orte_base_help_aggregate" to 0 to see all help / error messages
  0   -973.1070034716   0.000000000000 0.05165204  0.00053644  0.2649483 0.7000
  1   -973.3160657482  -0.209062276622 0.03044260  0.00043966  0.1264313 0.7000
                               ***Turning on DIIS***
  2   -973.4201881199  -0.104122371699 0.05789173  0.00092636  0.0482020 0.0000
  3   -973.5970262196  -0.176838099674 0.02994277  0.00031061  0.0594327 0.0000
  4   -973.6200308065  -0.023004586881 0.00698048  0.00010308  0.0187577 0.0000
  5   -973.6214027872  -0.001371980711 0.00431744  0.00005427  0.0052406 0.0000
                      *** Initiating the SOSCF procedure ***
                           *** Shutting down DIIS ***
                      *** Re-Reading the Fockian *** 
                      *** Removing any level shift *** 
ITER      Energy       Delta-E        Grad      Rot      Max-DP    RMS-DP
  6   -973.62160259  -0.0001998035  0.001295  0.001295  0.001881  0.000029
               *** Restarting incremental Fock matrix formation ***
  7   -973.62166096  -0.0000583716  0.000989  0.003376  0.001694  0.000021
  8   -973.62168769  -0.0000267284  0.000362  0.003770  0.001899  0.000026
  9   -973.62169465  -0.0000069554  0.000210  0.000385  0.000444  0.000007
 10   -973.62169821  -0.0000035609  0.000104  0.000221  0.000271  0.000003
 11   -973.62169825  -0.0000000383  0.000080  0.000120  0.000136  0.000001
 12   -973.62169846  -0.0000002105  0.000009  0.000064  0.000041  0.000000
 13   -973.62169846  -0.0000000079  0.000008  0.000025  0.000012  0.000000
                  ***Gradient check signals convergence***
              ***Rediagonalizing the Fockian in SOSCF/NRSCF***

               *****************************************************
               *                     SUCCESS                       *
               *           SCF CONVERGED AFTER  14 CYCLES          *
               *****************************************************

Setting up the final grid:

General Integration Accuracy     IntAcc      ...  4.670
Radial Grid Type                 RadialGrid  ... Gauss-Chebyshev
Angular Grid (max. acc.)         AngularGrid ... Lebedev-302
Angular grid pruning method      GridPruning ... 3 (G Style)
Weight generation scheme         WeightScheme... Becke
Basis function cutoff            BFCut       ...    1.0000e-11
Integration weight cutoff        WCut        ...    1.0000e-14
Grids for H and He will be reduced by one unit

# of grid points (after initial pruning)     ... 200574 (   0.0 sec)
# of grid points (after weights+screening)   ... 178158 (   1.1 sec)
nearest neighbour list constructed           ...    0.0 sec
Grid point re-assignment to atoms done       ...    0.0 sec
Grid point division into batches done        ...    0.9 sec
Reduced shell lists constructed in    1.9 sec

Total number of grid points                  ...   178158
Total number of batches                      ...     2805
Average number of points per batch           ...       63
Average number of grid points per atom       ...     4454
Average number of shells per batch           ...   103.16 (32.14%)
Average number of basis functions per batch  ...   266.61 (32.71%)
Average number of large shells per batch     ...    69.95 (67.81%)
Average number of large basis fcns per batch ...   183.97 (69.00%)
Maximum spatial batch extension              ...  20.69, 17.61, 21.16 au
Average spatial batch extension              ...   0.60,  0.57,  0.65 au

Final grid set up in    3.2 sec
Final integration                            ... done (   3.4 sec)
Change in XC energy                          ...     0.004199839
Integrated number of electrons               ...   160.000057153
Previous integrated no of electrons          ...   159.996348570

----------------
TOTAL SCF ENERGY
----------------

Total Energy       :         -973.61749862 Eh          -26493.47904 eV

Components:
Nuclear Repulsion  :         1585.31336217 Eh           43138.56971 eV
Electronic Energy  :        -2558.93086079 Eh          -69632.04875 eV
One Electron Energy:        -4463.85392742 Eh         -121467.64066 eV
Two Electron Energy:         1904.92306663 Eh           51835.59191 eV
CPCM Dielectric    :           -0.01901864 Eh              -0.51752 eV

Virial components:
Potential Energy   :        -1942.08889453 Eh          -52846.92551 eV
Kinetic Energy     :          968.47139591 Eh           26353.44647 eV
Virial Ratio       :            2.00531363


DFT components:
N(Alpha)           :       80.000028576494 electrons
N(Beta)            :       80.000028576494 electrons
N(Total)           :      160.000057152989 electrons
E(XC)              :      -95.356633383163 Eh       
DFET-embed. en.    :        0.000000000000 Eh       
CPCM Solvation Model Properties:
Surface-charge          :           -0.04283999
Charge-correction       :           -0.00002594 Eh              -0.00071 eV
Free-energy (cav+disp)  :            0.00616033 Eh               0.16763 eV
Corrected G(solv)       :         -973.61136422 Eh          -26493.31211 eV

---------------
SCF CONVERGENCE
---------------

  Last Energy change         ...    7.6096e-09  Tolerance :   1.0000e-08
  Last MAX-Density change    ...    9.6863e-06  Tolerance :   1.0000e-07
  Last RMS-Density change    ...    1.4597e-07  Tolerance :   5.0000e-09
  Last Orbital Gradient      ...    1.6166e-06  Tolerance :   1.0000e-05
  Last Orbital Rotation      ...    8.4882e-06  Tolerance :   1.0000e-05

             **** THE GBW FILE WAS UPDATED (DCM.gbw) ****
             **** DENSITY FILE WAS UPDATED (DCM.scfp) ****
             **** ENERGY FILE WAS UPDATED (DCM.en.tmp) ****
             **** THE GBW FILE WAS UPDATED (DCM.gbw) ****
             **** DENSITY FILE WAS UPDATED (DCM.scfp) ****
----------------
ORBITAL ENERGIES
----------------

  NO   OCC          E(Eh)            E(eV) 
   0   2.0000     -19.338925      -526.2389 
   1   2.0000     -14.441759      -392.9802 
   2   2.0000     -14.427558      -392.5938 
   3   2.0000     -14.425830      -392.5468 
   4   2.0000     -10.401817      -283.0478 
   5   2.0000     -10.395451      -282.8746 
   6   2.0000     -10.356575      -281.8167 
   7   2.0000     -10.340928      -281.3909 
   8   2.0000     -10.339778      -281.3597 
   9   2.0000     -10.333690      -281.1940 
  10   2.0000     -10.331260      -281.1279 
  11   2.0000     -10.316913      -280.7375 
  12   2.0000     -10.315549      -280.7004 
  13   2.0000     -10.309268      -280.5294 
  14   2.0000     -10.304982      -280.4128 
  15   2.0000     -10.304861      -280.4095 
  16   2.0000     -10.304457      -280.3985 
  17   2.0000     -10.304084      -280.3884 
  18   2.0000     -10.288331      -279.9597 
  19   2.0000     -10.286099      -279.8990 
  20   2.0000     -10.284723      -279.8615 
  21   2.0000     -10.280314      -279.7416 
  22   2.0000     -10.279354      -279.7155 
  23   2.0000      -1.245133       -33.8818 
  24   2.0000      -1.050297       -28.5800 
  25   2.0000      -1.042976       -28.3808 
  26   2.0000      -1.028226       -27.9795 
  27   2.0000      -0.991860       -26.9899 
  28   2.0000      -0.984751       -26.7964 
  29   2.0000      -0.967588       -26.3294 
  30   2.0000      -0.926454       -25.2101 
  31   2.0000      -0.905979       -24.6529 
  32   2.0000      -0.871358       -23.7109 
  33   2.0000      -0.865908       -23.5626 
  34   2.0000      -0.840643       -22.8751 
  35   2.0000      -0.827865       -22.5274 
  36   2.0000      -0.799754       -21.7624 
  37   2.0000      -0.777938       -21.1688 
  38   2.0000      -0.763514       -20.7763 
  39   2.0000      -0.721039       -19.6205 
  40   2.0000      -0.718646       -19.5553 
  41   2.0000      -0.700506       -19.0617 
  42   2.0000      -0.684776       -18.6337 
  43   2.0000      -0.647960       -17.6319 
  44   2.0000      -0.630168       -17.1478 
  45   2.0000      -0.615713       -16.7544 
  46   2.0000      -0.608549       -16.5595 
  47   2.0000      -0.601305       -16.3623 
  48   2.0000      -0.588312       -16.0088 
  49   2.0000      -0.582636       -15.8543 
  50   2.0000      -0.568346       -15.4655 
  51   2.0000      -0.565359       -15.3842 
  52   2.0000      -0.556613       -15.1462 
  53   2.0000      -0.553647       -15.0655 
  54   2.0000      -0.530254       -14.4289 
  55   2.0000      -0.527619       -14.3572 
  56   2.0000      -0.522691       -14.2231 
  57   2.0000      -0.521175       -14.1819 
  58   2.0000      -0.516043       -14.0422 
  59   2.0000      -0.508551       -13.8384 
  60   2.0000      -0.493866       -13.4388 
  61   2.0000      -0.492241       -13.3946 
  62   2.0000      -0.487188       -13.2570 
  63   2.0000      -0.478523       -13.0213 
  64   2.0000      -0.477378       -12.9901 
  65   2.0000      -0.474457       -12.9106 
  66   2.0000      -0.469350       -12.7717 
  67   2.0000      -0.466497       -12.6940 
  68   2.0000      -0.453839       -12.3496 
  69   2.0000      -0.453273       -12.3342 
  70   2.0000      -0.445117       -12.1122 
  71   2.0000      -0.441534       -12.0148 
  72   2.0000      -0.440920       -11.9980 
  73   2.0000      -0.434214       -11.8156 
  74   2.0000      -0.397501       -10.8166 
  75   2.0000      -0.376387       -10.2420 
  76   2.0000      -0.363340        -9.8870 
  77   2.0000      -0.346874        -9.4389 
  78   2.0000      -0.311434        -8.4746 
  79   2.0000      -0.274219        -7.4619 
  80   0.0000      -0.017688        -0.4813 
  81   0.0000       0.022791         0.6202 
  82   0.0000       0.048882         1.3302 
  83   0.0000       0.060175         1.6374 
  84   0.0000       0.072023         1.9598 
  85   0.0000       0.082401         2.2423 
  86   0.0000       0.108324         2.9476 
  87   0.0000       0.115374         3.1395 
  88   0.0000       0.119546         3.2530 
  89   0.0000       0.122702         3.3389 
  90   0.0000       0.133178         3.6239 
  91   0.0000       0.136251         3.7076 
  92   0.0000       0.137416         3.7393 
  93   0.0000       0.145058         3.9472 
  94   0.0000       0.153026         4.1640 
  95   0.0000       0.156249         4.2517 
  96   0.0000       0.166655         4.5349 
  97   0.0000       0.170121         4.6292 
  98   0.0000       0.176756         4.8098 
  99   0.0000       0.180312         4.9065 
 100   0.0000       0.181533         4.9398 
 101   0.0000       0.190316         5.1788 
 102   0.0000       0.195022         5.3068 
 103   0.0000       0.197125         5.3641 
 104   0.0000       0.205295         5.5864 
 105   0.0000       0.205793         5.5999 
 106   0.0000       0.214714         5.8427 
 107   0.0000       0.222618         6.0577 
 108   0.0000       0.223470         6.0809 
 109   0.0000       0.230025         6.2593 
 110   0.0000       0.230497         6.2721 
 111   0.0000       0.233891         6.3645 
 112   0.0000       0.242245         6.5918 
 113   0.0000       0.247411         6.7324 
 114   0.0000       0.250491         6.8162 
 115   0.0000       0.251994         6.8571 
 116   0.0000       0.254844         6.9346 
 117   0.0000       0.261575         7.1178 
 118   0.0000       0.263222         7.1626 
 119   0.0000       0.265244         7.2177 
 120   0.0000       0.272854         7.4247 
 121   0.0000       0.277990         7.5645 
 122   0.0000       0.281242         7.6530 
 123   0.0000       0.282237         7.6800 
 124   0.0000       0.287905         7.8343 
 125   0.0000       0.289592         7.8802 
 126   0.0000       0.298267         8.1163 
 127   0.0000       0.300961         8.1896 
 128   0.0000       0.302874         8.2416 
 129   0.0000       0.310913         8.4604 
 130   0.0000       0.316131         8.6024 
 131   0.0000       0.321219         8.7408 
 132   0.0000       0.326631         8.8881 
 133   0.0000       0.328275         8.9328 
 134   0.0000       0.337463         9.1828 
 135   0.0000       0.338402         9.2084 
 136   0.0000       0.342914         9.3312 
 137   0.0000       0.344633         9.3779 
 138   0.0000       0.350635         9.5413 
 139   0.0000       0.359224         9.7750 
 140   0.0000       0.360290         9.8040 
 141   0.0000       0.361060         9.8249 
 142   0.0000       0.368095        10.0164 
 143   0.0000       0.369963        10.0672 
 144   0.0000       0.374985        10.2039 
 145   0.0000       0.376213        10.2373 
 146   0.0000       0.376361        10.2413 
 147   0.0000       0.390821        10.6348 
 148   0.0000       0.396176        10.7805 
 149   0.0000       0.407213        11.0808 
 150   0.0000       0.410944        11.1824 
 151   0.0000       0.411461        11.1964 
 152   0.0000       0.419667        11.4197 
 153   0.0000       0.423650        11.5281 
 154   0.0000       0.429980        11.7004 
 155   0.0000       0.434860        11.8331 
 156   0.0000       0.436696        11.8831 
 157   0.0000       0.440264        11.9802 
 158   0.0000       0.442379        12.0377 
 159   0.0000       0.444269        12.0892 
 160   0.0000       0.451680        12.2908 
 161   0.0000       0.455611        12.3978 
 162   0.0000       0.462287        12.5795 
 163   0.0000       0.465898        12.6777 
 164   0.0000       0.468456        12.7473 
 165   0.0000       0.470201        12.7948 
 166   0.0000       0.479014        13.0346 
 167   0.0000       0.483668        13.1613 
 168   0.0000       0.485057        13.1991 
 169   0.0000       0.487359        13.2617 
 170   0.0000       0.499266        13.5857 
 171   0.0000       0.502289        13.6680 
 172   0.0000       0.503739        13.7074 
 173   0.0000       0.512312        13.9407 
 174   0.0000       0.513129        13.9630 
 175   0.0000       0.519214        14.1285 
 176   0.0000       0.522063        14.2061 
 177   0.0000       0.523032        14.2324 
 178   0.0000       0.529818        14.4171 
 179   0.0000       0.531601        14.4656 
 180   0.0000       0.535640        14.5755 
 181   0.0000       0.538898        14.6642 
 182   0.0000       0.545689        14.8490 
 183   0.0000       0.548762        14.9326 
 184   0.0000       0.553291        15.0558 
 185   0.0000       0.555709        15.1216 
 186   0.0000       0.559294        15.2192 
 187   0.0000       0.565322        15.3832 
 188   0.0000       0.569837        15.5060 
 189   0.0000       0.570953        15.5364 
 190   0.0000       0.578316        15.7368 
 191   0.0000       0.580708        15.8019 
 192   0.0000       0.585173        15.9234 
 193   0.0000       0.593227        16.1425 
 194   0.0000       0.594473        16.1764 
 195   0.0000       0.599702        16.3187 
 196   0.0000       0.602654        16.3991 
 197   0.0000       0.610869        16.6226 
 198   0.0000       0.613406        16.6916 
 199   0.0000       0.615439        16.7469 
 200   0.0000       0.620964        16.8973 
 201   0.0000       0.642569        17.4852 
 202   0.0000       0.647126        17.6092 
 203   0.0000       0.649711        17.6795 
 204   0.0000       0.654584        17.8121 
 205   0.0000       0.657423        17.8894 
 206   0.0000       0.663904        18.0658 
 207   0.0000       0.667749        18.1704 
 208   0.0000       0.672184        18.2911 
 209   0.0000       0.683842        18.6083 
 210   0.0000       0.686530        18.6814 
 211   0.0000       0.691030        18.8039 
 212   0.0000       0.699190        19.0259 
 213   0.0000       0.700394        19.0587 
 214   0.0000       0.703098        19.1323 
 215   0.0000       0.706228        19.2174 
 216   0.0000       0.706985        19.2380 
 217   0.0000       0.715246        19.4628 
 218   0.0000       0.717202        19.5160 
 219   0.0000       0.720425        19.6038 
 220   0.0000       0.739526        20.1235 
 221   0.0000       0.748741        20.3743 
 222   0.0000       0.750711        20.4279 
 223   0.0000       0.755592        20.5607 
 224   0.0000       0.758882        20.6502 
 225   0.0000       0.760455        20.6930 
 226   0.0000       0.771330        20.9890 
 227   0.0000       0.774975        21.0881 
 228   0.0000       0.781009        21.2523 
 229   0.0000       0.787379        21.4257 
 230   0.0000       0.789829        21.4924 
 231   0.0000       0.795009        21.6333 
 232   0.0000       0.799813        21.7640 
 233   0.0000       0.803637        21.8681 
 234   0.0000       0.813902        22.1474 
 235   0.0000       0.822112        22.3708 
 236   0.0000       0.825473        22.4622 
 237   0.0000       0.829240        22.5648 
 238   0.0000       0.835202        22.7270 
 239   0.0000       0.840575        22.8732 
 240   0.0000       0.848538        23.0899 
 241   0.0000       0.851940        23.1825 
 242   0.0000       0.864835        23.5334 
 243   0.0000       0.872596        23.7445 
 244   0.0000       0.878869        23.9152 
 245   0.0000       0.885922        24.1072 
 246   0.0000       0.891124        24.2487 
 247   0.0000       0.895209        24.3599 
 248   0.0000       0.903329        24.5808 
 249   0.0000       0.911014        24.7899 
 250   0.0000       0.912042        24.8179 
 251   0.0000       0.915709        24.9177 
 252   0.0000       0.922481        25.1020 
 253   0.0000       0.928623        25.2691 
 254   0.0000       0.934311        25.4239 
 255   0.0000       0.937370        25.5071 
 256   0.0000       0.950111        25.8538 
 257   0.0000       0.954550        25.9746 
 258   0.0000       0.960375        26.1331 
 259   0.0000       0.964365        26.2417 
 260   0.0000       0.968303        26.3489 
 261   0.0000       0.982989        26.7485 
 262   0.0000       0.986717        26.8499 
 263   0.0000       0.993994        27.0479 
 264   0.0000       1.005885        27.3715 
 265   0.0000       1.007951        27.4277 
 266   0.0000       1.016272        27.6542 
 267   0.0000       1.024338        27.8737 
 268   0.0000       1.028039        27.9744 
 269   0.0000       1.031104        28.0578 
 270   0.0000       1.058832        28.8123 
 271   0.0000       1.061407        28.8824 
 272   0.0000       1.064807        28.9749 
 273   0.0000       1.067964        29.0608 
 274   0.0000       1.087305        29.5871 
 275   0.0000       1.091775        29.7087 
 276   0.0000       1.099004        29.9054 
 277   0.0000       1.100490        29.9458 
 278   0.0000       1.108652        30.1680 
 279   0.0000       1.121309        30.5124 
 280   0.0000       1.127892        30.6915 
 281   0.0000       1.136296        30.9202 
 282   0.0000       1.144860        31.1532 
 283   0.0000       1.150805        31.3150 
 284   0.0000       1.159163        31.5424 
 285   0.0000       1.162628        31.6367 
 286   0.0000       1.170691        31.8561 
 287   0.0000       1.177066        32.0296 
 288   0.0000       1.181144        32.1406 
 289   0.0000       1.197565        32.5874 
 290   0.0000       1.211571        32.9685 
 291   0.0000       1.220503        33.2116 
 292   0.0000       1.223264        33.2867 
 293   0.0000       1.230024        33.4707 
 294   0.0000       1.242248        33.8033 
 295   0.0000       1.244099        33.8536 
 296   0.0000       1.253219        34.1018 
 297   0.0000       1.255352        34.1599 
 298   0.0000       1.279070        34.8053 
 299   0.0000       1.284221        34.9454 
 300   0.0000       1.287580        35.0368 
 301   0.0000       1.299183        35.3526 
 302   0.0000       1.311178        35.6790 
 303   0.0000       1.324027        36.0286 
 304   0.0000       1.333321        36.2815 
 305   0.0000       1.337818        36.4039 
 306   0.0000       1.340147        36.4673 
 307   0.0000       1.345681        36.6178 
 308   0.0000       1.348590        36.6970 
 309   0.0000       1.352212        36.7956 
 310   0.0000       1.357674        36.9442 
 311   0.0000       1.362781        37.0832 
 312   0.0000       1.377198        37.4755 
 313   0.0000       1.381920        37.6040 
 314   0.0000       1.385364        37.6977 
 315   0.0000       1.390089        37.8262 
 316   0.0000       1.400061        38.0976 
 317   0.0000       1.409183        38.3458 
 318   0.0000       1.413587        38.4656 
 319   0.0000       1.436612        39.0922 
 320   0.0000       1.439089        39.1596 
 321   0.0000       1.456886        39.6439 
 322   0.0000       1.458323        39.6830 
 323   0.0000       1.467719        39.9387 
 324   0.0000       1.474964        40.1358 
 325   0.0000       1.492210        40.6051 
 326   0.0000       1.492839        40.6222 
 327   0.0000       1.497555        40.7506 
 328   0.0000       1.508931        41.0601 
 329   0.0000       1.515340        41.2345 
 330   0.0000       1.522376        41.4260 
 331   0.0000       1.523144        41.4468 
 332   0.0000       1.528882        41.6030 
 333   0.0000       1.538487        41.8644 
 334   0.0000       1.546118        42.0720 
 335   0.0000       1.561577        42.4927 
 336   0.0000       1.566536        42.6276 
 337   0.0000       1.570652        42.7396 
 338   0.0000       1.573954        42.8295 
 339   0.0000       1.582757        43.0690 
 340   0.0000       1.587701        43.2035 
 341   0.0000       1.596481        43.4425 
 342   0.0000       1.599902        43.5355 
 343   0.0000       1.609116        43.7863 
 344   0.0000       1.610913        43.8352 
 345   0.0000       1.620340        44.0917 
 346   0.0000       1.628778        44.3213 
 347   0.0000       1.630235        44.3610 
 348   0.0000       1.631999        44.4090 
 349   0.0000       1.635269        44.4979 
 350   0.0000       1.642469        44.6939 
 351   0.0000       1.648144        44.8483 
 352   0.0000       1.651803        44.9479 
 353   0.0000       1.655439        45.0468 
 354   0.0000       1.659484        45.1569 
 355   0.0000       1.661055        45.1996 
 356   0.0000       1.676104        45.6091 
 357   0.0000       1.681062        45.7440 
 358   0.0000       1.687548        45.9205 
 359   0.0000       1.689696        45.9790 
 360   0.0000       1.694417        46.1074 
 361   0.0000       1.703516        46.3550 
 362   0.0000       1.705675        46.4138 
 363   0.0000       1.707641        46.4673 
 364   0.0000       1.716573        46.7103 
 365   0.0000       1.733503        47.1710 
 366   0.0000       1.750161        47.6243 
 367   0.0000       1.754352        47.7384 
 368   0.0000       1.763139        47.9775 
 369   0.0000       1.771457        48.2038 
 370   0.0000       1.771970        48.2178 
 371   0.0000       1.788656        48.6718 
 372   0.0000       1.797522        48.9131 
 373   0.0000       1.801123        49.0110 
 374   0.0000       1.815249        49.3954 
 375   0.0000       1.828569        49.7579 
 376   0.0000       1.832715        49.8707 
 377   0.0000       1.834219        49.9116 
 378   0.0000       1.847985        50.2862 
 379   0.0000       1.851939        50.3938 
 380   0.0000       1.863602        50.7112 
 381   0.0000       1.882952        51.2377 
 382   0.0000       1.887314        51.3564 
 383   0.0000       1.891072        51.4587 
 384   0.0000       1.905080        51.8399 
 385   0.0000       1.910287        51.9816 
 386   0.0000       1.917047        52.1655 
 387   0.0000       1.925620        52.3988 
 388   0.0000       1.929722        52.5104 
 389   0.0000       1.934918        52.6518 
 390   0.0000       1.941996        52.8444 
 391   0.0000       1.945090        52.9286 
 392   0.0000       1.958660        53.2978 
 393   0.0000       1.967202        53.5303 
 394   0.0000       1.978922        53.8492 
 395   0.0000       1.993313        54.2408 
 396   0.0000       2.001399        54.4608 
 397   0.0000       2.012825        54.7718 
 398   0.0000       2.020451        54.9793 
 399   0.0000       2.024775        55.0969 
 400   0.0000       2.029662        55.2299 
 401   0.0000       2.034522        55.3622 
 402   0.0000       2.040788        55.5327 
 403   0.0000       2.047866        55.7253 
 404   0.0000       2.056026        55.9473 
 405   0.0000       2.063947        56.1629 
 406   0.0000       2.072253        56.3889 
 407   0.0000       2.077247        56.5248 
 408   0.0000       2.083874        56.7051 
 409   0.0000       2.097548        57.0772 
 410   0.0000       2.100228        57.1501 
 411   0.0000       2.110594        57.4322 
 412   0.0000       2.121055        57.7168 
 413   0.0000       2.135690        58.1151 
 414   0.0000       2.137793        58.1723 
 415   0.0000       2.145825        58.3909 
 416   0.0000       2.164422        58.8969 
 417   0.0000       2.180488        59.3341 
 418   0.0000       2.181574        59.3637 
 419   0.0000       2.199292        59.8458 
 420   0.0000       2.205119        60.0043 
 421   0.0000       2.217455        60.3400 
 422   0.0000       2.223243        60.4975 
 423   0.0000       2.227788        60.6212 
 424   0.0000       2.234787        60.8116 
 425   0.0000       2.247896        61.1683 
 426   0.0000       2.249803        61.2202 
 427   0.0000       2.254080        61.3366 
 428   0.0000       2.265035        61.6347 
 429   0.0000       2.275153        61.9100 
 430   0.0000       2.287513        62.2464 
 431   0.0000       2.292974        62.3950 
 432   0.0000       2.296439        62.4893 
 433   0.0000       2.313540        62.9546 
 434   0.0000       2.326793        63.3152 
 435   0.0000       2.344598        63.7998 
 436   0.0000       2.354236        64.0620 
 437   0.0000       2.365334        64.3640 
 438   0.0000       2.377609        64.6980 
 439   0.0000       2.388197        64.9861 
 440   0.0000       2.394605        65.1605 
 441   0.0000       2.396436        65.2104 
 442   0.0000       2.403141        65.3928 
 443   0.0000       2.412336        65.6430 
 444   0.0000       2.422724        65.9257 
 445   0.0000       2.431559        66.1661 
 446   0.0000       2.432811        66.2002 
 447   0.0000       2.438366        66.3513 
 448   0.0000       2.454033        66.7776 
 449   0.0000       2.457684        66.8770 
 450   0.0000       2.464039        67.0499 
 451   0.0000       2.468445        67.1698 
 452   0.0000       2.470846        67.2351 
 453   0.0000       2.477394        67.4133 
 454   0.0000       2.497099        67.9495 
 455   0.0000       2.498172        67.9787 
 456   0.0000       2.504261        68.1444 
 457   0.0000       2.504999        68.1645 
 458   0.0000       2.510837        68.3233 
 459   0.0000       2.525938        68.7343 
 460   0.0000       2.536851        69.0312 
 461   0.0000       2.556815        69.5745 
 462   0.0000       2.560618        69.6780 
 463   0.0000       2.565520        69.8114 
 464   0.0000       2.579874        70.2019 
 465   0.0000       2.581721        70.2522 
 466   0.0000       2.594992        70.6133 
 467   0.0000       2.598500        70.7088 
 468   0.0000       2.604047        70.8597 
 469   0.0000       2.614027        71.1313 
 470   0.0000       2.623174        71.3802 
 471   0.0000       2.625371        71.4400 
 472   0.0000       2.635705        71.7212 
 473   0.0000       2.645837        71.9969 
 474   0.0000       2.653626        72.2088 
 475   0.0000       2.655105        72.2491 
 476   0.0000       2.668682        72.6185 
 477   0.0000       2.672465        72.7215 
 478   0.0000       2.676496        72.8312 
 479   0.0000       2.685268        73.0699 
 480   0.0000       2.692583        73.2689 
 481   0.0000       2.695851        73.3578 
 482   0.0000       2.703166        73.5569 
 483   0.0000       2.707264        73.6684 
 484   0.0000       2.719034        73.9887 
 485   0.0000       2.727170        74.2101 
 486   0.0000       2.732302        74.3497 
 487   0.0000       2.740365        74.5691 
 488   0.0000       2.747847        74.7727 
 489   0.0000       2.749377        74.8144 
 490   0.0000       2.761778        75.1518 
 491   0.0000       2.763613        75.2017 
 492   0.0000       2.770330        75.3845 
 493   0.0000       2.774946        75.5101 
 494   0.0000       2.778551        75.6082 
 495   0.0000       2.783792        75.7508 
 496   0.0000       2.787387        75.8487 
 497   0.0000       2.793839        76.0242 
 498   0.0000       2.803816        76.2957 
 499   0.0000       2.813752        76.5661 
 500   0.0000       2.828667        76.9719 
 501   0.0000       2.833082        77.0921 
 502   0.0000       2.836105        77.1743 
 503   0.0000       2.841964        77.3338 
 504   0.0000       2.849462        77.5378 
 505   0.0000       2.851835        77.6024 
 506   0.0000       2.859556        77.8125 
 507   0.0000       2.861812        77.8739 
 508   0.0000       2.881676        78.4144 
 509   0.0000       2.892049        78.6967 
 510   0.0000       2.901374        78.9504 
 511   0.0000       2.908163        79.1351 
 512   0.0000       2.919923        79.4551 
 513   0.0000       2.923528        79.5532 
 514   0.0000       2.929130        79.7057 
 515   0.0000       2.937272        79.9272 
 516   0.0000       2.947640        80.2094 
 517   0.0000       2.962313        80.6086 
 518   0.0000       2.966385        80.7194 
 519   0.0000       2.975370        80.9639 
 520   0.0000       2.979632        81.0799 
 521   0.0000       2.989644        81.3524 
 522   0.0000       2.992094        81.4190 
 523   0.0000       2.995103        81.5009 
 524   0.0000       2.999507        81.6207 
 525   0.0000       3.009572        81.8946 
 526   0.0000       3.016995        82.0966 
 527   0.0000       3.021561        82.2209 
 528   0.0000       3.028911        82.4209 
 529   0.0000       3.034401        82.5702 
 530   0.0000       3.041235        82.7562 
 531   0.0000       3.043809        82.8263 
 532   0.0000       3.048086        82.9426 
 533   0.0000       3.062922        83.3463 
 534   0.0000       3.065872        83.4266 
 535   0.0000       3.070649        83.5566 
 536   0.0000       3.078965        83.7829 
 537   0.0000       3.091144        84.1143 
 538   0.0000       3.094073        84.1940 
[...]
      f-1     :     0.005653
      f+2     :     0.007922
      f-2     :     0.004314
      f+3     :     0.007328
      f-3     :     0.005829
 10 C s       :     2.715049  s :     2.715049
      pz      :     0.856397  p :     2.708192
      px      :     0.820932
      py      :     1.030863
      dz2     :     0.125042  d :     0.675305
      dxz     :     0.088744
      dyz     :     0.189494
      dx2y2   :     0.117599
      dxy     :     0.154427
      f0      :     0.015632  f :     0.097940
      f+1     :     0.011567
      f-1     :     0.013574
      f+2     :     0.019156
      f-2     :     0.013899
      f+3     :     0.014081
      f-3     :     0.010031
 11 C s       :     2.760898  s :     2.760898
      pz      :     0.969577  p :     2.976858
      px      :     0.954199
      py      :     1.053082
      dz2     :     0.061793  d :     0.361280
      dxz     :     0.027398
      dyz     :     0.148581
      dx2y2   :     0.057062
      dxy     :     0.066446
      f0      :     0.006366  f :     0.039984
      f+1     :     0.003212
      f-1     :     0.006730
      f+2     :     0.007814
      f-2     :     0.004308
      f+3     :     0.006129
      f-3     :     0.005426
 12 C s       :     2.766252  s :     2.766252
      pz      :     0.984181  p :     2.878343
      px      :     0.838093
      py      :     1.056069
      dz2     :     0.078750  d :     0.397142
      dxz     :     0.038577
      dyz     :     0.137688
      dx2y2   :     0.060669
      dxy     :     0.081458
      f0      :     0.007416  f :     0.040830
      f+1     :     0.003076
      f-1     :     0.006790
      f+2     :     0.007223
      f-2     :     0.004437
      f+3     :     0.005793
      f-3     :     0.006095
 13 C s       :     2.693767  s :     2.693767
      pz      :     1.002918  p :     2.911357
      px      :     0.911554
      py      :     0.996885
      dz2     :     0.129348  d :     0.512037
      dxz     :     0.071819
      dyz     :     0.170195
      dx2y2   :     0.069553
      dxy     :     0.071123
      f0      :     0.013568  f :     0.058303
      f+1     :     0.006312
      f-1     :     0.012319
      f+2     :     0.008157
      f-2     :     0.007073
      f+3     :     0.005409
      f-3     :     0.005465
 14 C s       :     2.752571  s :     2.752571
      pz      :     1.036512  p :     2.900182
      px      :     0.877055
      py      :     0.986615
      dz2     :     0.130888  d :     0.404641
      dxz     :     0.088006
      dyz     :     0.106154
      dx2y2   :     0.041953
      dxy     :     0.037641
      f0      :     0.009861  f :     0.044415
      f+1     :     0.004813
      f-1     :     0.010628
      f+2     :     0.006620
      f-2     :     0.007792
      f+3     :     0.002738
      f-3     :     0.001962
 15 C s       :     2.750599  s :     2.750599
      pz      :     1.002880  p :     2.978622
      px      :     0.954306
      py      :     1.021436
      dz2     :     0.096443  d :     0.369023
      dxz     :     0.035592
      dyz     :     0.107451
      dx2y2   :     0.063576
      dxy     :     0.065961
      f0      :     0.007602  f :     0.042358
      f+1     :     0.002962
      f-1     :     0.008452
      f+2     :     0.006554
      f-2     :     0.006404
      f+3     :     0.004833
      f-3     :     0.005552
 16 C s       :     2.693911  s :     2.693911
      pz      :     0.962745  p :     2.780433
      px      :     0.844507
      py      :     0.973180
      dz2     :     0.144453  d :     0.636759
      dxz     :     0.117464
      dyz     :     0.183743
      dx2y2   :     0.080596
      dxy     :     0.110502
      f0      :     0.015317  f :     0.078573
      f+1     :     0.007133
      f-1     :     0.016341
      f+2     :     0.011761
      f-2     :     0.015451
      f+3     :     0.006119
      f-3     :     0.006452
 17 N s       :     2.870344  s :     2.870344
      pz      :     1.137888  p :     3.664582
      px      :     1.371558
      py      :     1.155136
      dz2     :     0.081850  d :     0.300297
      dxz     :     0.043175
      dyz     :     0.093111
      dx2y2   :     0.040122
      dxy     :     0.042038
      f0      :     0.004453  f :     0.020678
      f+1     :     0.002062
      f-1     :     0.003750
      f+2     :     0.003043
      f-2     :     0.003068
      f+3     :     0.001816
      f-3     :     0.002486
 18 C s       :     2.828129  s :     2.828129
      pz      :     0.911351  p :     3.084247
      px      :     1.088549
      py      :     1.084347
      dz2     :     0.077387  d :     0.340789
      dxz     :     0.084925
      dyz     :     0.094755
      dx2y2   :     0.028681
      dxy     :     0.055041
      f0      :     0.009171  f :     0.040725
      f+1     :     0.011917
      f-1     :     0.007262
      f+2     :     0.005804
      f-2     :     0.003133
      f+3     :     0.000922
      f-3     :     0.002516
 19 C s       :     2.828194  s :     2.828194
      pz      :     1.095066  p :     3.084471
      px      :     1.067068
      py      :     0.922337
      dz2     :     0.041831  d :     0.340171
      dxz     :     0.026724
      dyz     :     0.090148
      dx2y2   :     0.103881
      dxy     :     0.077587
      f0      :     0.003699  f :     0.040675
      f+1     :     0.003213
      f-1     :     0.006207
      f+2     :     0.003034
      f-2     :     0.005077
      f+3     :     0.008790
      f-3     :     0.010656
 20 C s       :     2.750374  s :     2.750374
      pz      :     1.027628  p :     2.980315
      px      :     0.955803
      py      :     0.996884
      dz2     :     0.124626  d :     0.367889
      dxz     :     0.068611
      dyz     :     0.101711
      dx2y2   :     0.042783
      dxy     :     0.030158
      f0      :     0.009817  f :     0.042297
      f+1     :     0.004711
      f-1     :     0.010313
      f+2     :     0.006201
      f-2     :     0.006801
      f+3     :     0.002361
      f-3     :     0.002092
 21 C s       :     2.752884  s :     2.752884
      pz      :     0.997135  p :     2.903057
      px      :     0.873498
      py      :     1.032425
      dz2     :     0.098575  d :     0.403429
      dxz     :     0.035995
      dyz     :     0.115756
      dx2y2   :     0.068647
      dxy     :     0.084456
      f0      :     0.007919  f :     0.044184
      f+1     :     0.003123
      f-1     :     0.008693
      f+2     :     0.007012
      f-2     :     0.006993
      f+3     :     0.004717
      f-3     :     0.005726
 22 O s       :     3.181636  s :     3.181636
      pz      :     1.326052  p :     4.265892
      px      :     1.412420
      py      :     1.527421
      dz2     :     0.030219  d :     0.123548
      dxz     :     0.027563
      dyz     :     0.031665
      dx2y2   :     0.015827
      dxy     :     0.018274
      f0      :     0.000974  f :     0.007336
      f+1     :     0.001266
      f-1     :     0.001253
      f+2     :     0.001468
      f-2     :     0.001085
      f+3     :     0.000685
      f-3     :     0.000605
 23 H s       :     0.794701  s :     0.794701
      pz      :     0.026452  p :     0.061636
      px      :     0.016668
      py      :     0.018516
 24 H s       :     0.791321  s :     0.791321
      pz      :     0.019265  p :     0.062076
      px      :     0.025086
      py      :     0.017726
 25 H s       :     0.794682  s :     0.794682
      pz      :     0.015401  p :     0.062122
      px      :     0.022498
      py      :     0.024222
 26 H s       :     0.764416  s :     0.764416
      pz      :     0.028437  p :     0.062336
      px      :     0.018663
      py      :     0.015236
 27 H s       :     0.762798  s :     0.762798
      pz      :     0.024835  p :     0.062349
      px      :     0.021673
      py      :     0.015841
 28 H s       :     0.771534  s :     0.771534
      pz      :     0.029057  p :     0.060321
      px      :     0.015223
      py      :     0.016041
 29 H s       :     0.776191  s :     0.776191
      pz      :     0.030479  p :     0.058295
      px      :     0.013996
      py      :     0.013820
 30 H s       :     0.784068  s :     0.784068
      pz      :     0.011719  p :     0.058563
      px      :     0.014983
      py      :     0.031861
 31 H s       :     0.784733  s :     0.784733
      pz      :     0.031494  p :     0.062210
      px      :     0.017405
      py      :     0.013311
 32 H s       :     0.817844  s :     0.817844
      pz      :     0.010146  p :     0.061294
      px      :     0.033571
      py      :     0.017577
 33 H s       :     0.822752  s :     0.822752
      pz      :     0.012881  p :     0.060883
      px      :     0.024311
      py      :     0.023691
 34 H s       :     0.813302  s :     0.813302
      pz      :     0.019076  p :     0.061649
      px      :     0.013807
      py      :     0.028765
 35 H s       :     0.818068  s :     0.818068
      pz      :     0.026803  p :     0.061364
      px      :     0.018513
      py      :     0.016048
 36 H s       :     0.813193  s :     0.813193
      pz      :     0.030374  p :     0.061565
      px      :     0.013490
      py      :     0.017701
 37 H s       :     0.822098  s :     0.822098
      pz      :     0.014690  p :     0.060960
      px      :     0.036303
      py      :     0.009967
 38 H s       :     0.784951  s :     0.784951
      pz      :     0.012096  p :     0.062145
      px      :     0.017180
      py      :     0.032868
 39 H s       :     0.785942  s :     0.785942
      pz      :     0.031241  p :     0.058376
      px      :     0.014390
      py      :     0.012746


                      *****************************
                      * MAYER POPULATION ANALYSIS *
                      *****************************

  NA   - Mulliken gross atomic population
  ZA   - Total nuclear charge
  QA   - Mulliken gross atomic charge
  VA   - Mayer's total valence
  BVA  - Mayer's bonded valence
  FA   - Mayer's free valence

  ATOM       NA         ZA         QA         VA         BVA        FA
  0 C      6.4075     6.0000    -0.4075     3.8659     3.8659    -0.0000
  1 C      5.7034     6.0000     0.2966     3.8326     3.8326    -0.0000
  2 C      6.3221     6.0000    -0.3221     3.9508     3.9508    -0.0000
  3 C      5.8434     6.0000     0.1566     3.9640     3.9640    -0.0000
  4 C      5.7785     6.0000     0.2215     3.5265     3.5265    -0.0000
  5 C      6.2243     6.0000    -0.2243     4.0819     4.0819    -0.0000
  6 N      7.1049     7.0000    -0.1049     3.1246     3.1246    -0.0000
  7 C      6.2142     6.0000    -0.2142     4.0755     4.0755    -0.0000
  8 N      7.1136     7.0000    -0.1136     3.1220     3.1220    -0.0000
  9 C      6.3272     6.0000    -0.3272     3.9100     3.9100    -0.0000
 10 C      5.6280     6.0000     0.3720     3.8317     3.8317    -0.0000
 11 C      6.2965     6.0000    -0.2965     3.9018     3.9018    -0.0000
 12 C      6.1537     6.0000    -0.1537     3.8948     3.8948    -0.0000
 13 C      5.7897     6.0000     0.2103     3.5861     3.5861    -0.0000
 14 C      6.2597     6.0000    -0.2597     4.0275     4.0275    -0.0000
 15 C      6.3020     6.0000    -0.3020     3.9183     3.9183    -0.0000
 16 C      5.6918     6.0000     0.3082     3.7501     3.7501    -0.0000
 17 N      7.1014     7.0000    -0.1014     3.1650     3.1650    -0.0000
 18 C      6.3230     6.0000    -0.3230     3.8651     3.8651    -0.0000
 19 C      6.3163     6.0000    -0.3163     3.8722     3.8722    -0.0000
 20 C      6.3070     6.0000    -0.3070     3.9471     3.9471    -0.0000
 21 C      6.2418     6.0000    -0.2418     4.0525     4.0525    -0.0000
 22 O      8.2214     8.0000    -0.2214     2.2845     2.2845    -0.0000
 23 H      0.8355     1.0000     0.1645     0.9686     0.9686    -0.0000
 24 H      0.8353     1.0000     0.1647     0.9637     0.9637    -0.0000
 25 H      0.8394     1.0000     0.1606     0.9631     0.9631    -0.0000
 26 H      0.8094     1.0000     0.1906     0.9701     0.9701    -0.0000
 27 H      0.8114     1.0000     0.1886     0.9745     0.9745    -0.0000
 28 H      0.8269     1.0000     0.1731     0.9654     0.9654    -0.0000
 29 H      0.8392     1.0000     0.1608     0.9599     0.9599    -0.0000
 30 H      0.8410     1.0000     0.1590     0.9616     0.9616    -0.0000
 31 H      0.8506     1.0000     0.1494     0.9762     0.9762    -0.0000
 32 H      0.8526     1.0000     0.1474     0.9532     0.9532    -0.0000
 33 H      0.8585     1.0000     0.1415     0.9581     0.9581    -0.0000
 34 H      0.8537     1.0000     0.1463     0.9722     0.9722    -0.0000
 35 H      0.8555     1.0000     0.1445     0.9530     0.9530    -0.0000
 36 H      0.8532     1.0000     0.1468     0.9711     0.9711    -0.0000
 37 H      0.8588     1.0000     0.1412     0.9584     0.9584    -0.0000
 38 H      0.8479     1.0000     0.1521     0.9737     0.9737    -0.0000
 39 H      0.8595     1.0000     0.1405     0.9729     0.9729    -0.0000

  Mayer bond orders larger than 0.100000
B(  0-C ,  1-C ) :   0.9177 B(  0-C , 23-H ) :   0.9902 B(  0-C , 24-H ) :   0.9539 
B(  0-C , 25-H ) :   0.9495 B(  1-C ,  2-C ) :   1.7254 B(  1-C , 22-O ) :   1.1015 
B(  2-C ,  3-C ) :   1.1764 B(  2-C , 26-H ) :   0.8898 B(  3-C ,  4-C ) :   1.4224 
B(  3-C ,  9-C ) :   1.1800 B(  4-C ,  5-C ) :   1.0131 B(  4-C ,  7-C ) :   1.0060 
B(  5-C ,  6-N ) :   2.9996 B(  7-C ,  8-N ) :   2.9987 B(  9-C , 10-C ) :   1.6321 
B(  9-C , 27-H ) :   0.9170 B( 10-C , 11-C ) :   1.0043 B( 10-C , 22-O ) :   1.0784 
B( 11-C , 12-C ) :   1.8508 B( 11-C , 28-H ) :   0.9568 B( 12-C , 13-C ) :   0.9689 
B( 12-C , 29-H ) :   0.9584 B( 13-C , 14-C ) :   1.2978 B( 13-C , 21-C ) :   1.3276 
B( 14-C , 15-C ) :   1.5469 B( 14-C , 30-H ) :   0.9631 B( 15-C , 16-C ) :   1.2300 
B( 15-C , 31-H ) :   0.9705 B( 16-C , 17-N ) :   1.2560 B( 16-C , 20-C ) :   1.2537 
B( 17-N , 18-C ) :   0.9519 B( 17-N , 19-C ) :   0.9527 B( 18-C , 32-H ) :   0.9623 
B( 18-C , 33-H ) :   0.9668 B( 18-C , 34-H ) :   0.9682 B( 19-C , 35-H ) :   0.9623 
B( 19-C , 36-H ) :   0.9678 B( 19-C , 37-H ) :   0.9669 B( 20-C , 21-C ) :   1.5308 
B( 20-C , 38-H ) :   0.9678 B( 21-C , 39-H ) :   0.9869 

-------
TIMINGS
-------

Total SCF time: 0 days 0 hours 31 min 12 sec 

Total time                  ....    1872.931 sec
Sum of individual times     ....    1870.436 sec  ( 99.9%)

Fock matrix formation       ....    1862.151 sec  ( 99.4%)
  XC integration            ....      11.319 sec  (  0.6% of F)
    Basis function eval.    ....       2.407 sec  ( 21.3% of XC)
    Density eval.           ....       3.420 sec  ( 30.2% of XC)
    XC-Functional eval.     ....       0.677 sec  (  6.0% of XC)
    XC-Potential eval.      ....       4.460 sec  ( 39.4% of XC)
Diagonalization             ....       0.537 sec  (  0.0%)
Density matrix formation    ....       0.083 sec  (  0.0%)
Population analysis         ....       0.330 sec  (  0.0%)
Initial guess               ....       0.551 sec  (  0.0%)
Orbital Transformation      ....       0.000 sec  (  0.0%)
Orbital Orthonormalization  ....       0.501 sec  (  0.0%)
DIIS solution               ....       0.148 sec  (  0.0%)
SOSCF solution              ....       2.574 sec  (  0.1%)
Grid generation             ....       4.061 sec  (  0.2%)


-------------------------------------------------------------------------------
                          DFT DISPERSION CORRECTION                            
                                                                               
                              DFTD3 V3.1  Rev 1                                
                              USING zero damping                               
-------------------------------------------------------------------------------
The omegaB97X-D3 functional is recognized. Fit by Chai et al.
Active option DFTDOPT                   ...         3   

molecular C6(AA) [au] = 19605.979906 


            DFT-D V3
 parameters
 s6 scaling factor         :     1.0000 
 rs6 scaling factor        :     1.2810 
 s8 scaling factor         :     1.0000 
 rs8 scaling factor        :     1.0940 
 Damping factor alpha6     :    14.0000 
 Damping factor alpha8     :    16.0000 
 ad hoc parameters k1-k3   :    16.0000     1.3333    -4.0000 

 Edisp/kcal,au: -11.296257675509  -0.018001730551 
 E6   /kcal   :  -5.364532580 
 E8   /kcal   :  -5.931725095 
 % E8         :  52.510532829 

-------------------------   ----------------
Dispersion correction           -0.018001731
-------------------------   ----------------


-------------------------   --------------------
FINAL SINGLE POINT ENERGY      -973.745333604504
-------------------------   --------------------

                                *** OPTIMIZATION RUN DONE ***

                            ***************************************
                            *     ORCA property calculations      *
                            ***************************************

                                    ---------------------
                                    Active property flags
                                    ---------------------
   (+) Dipole Moment


------------------------------------------------------------------------------
                       ORCA ELECTRIC PROPERTIES CALCULATION
------------------------------------------------------------------------------

Dipole Moment Calculation                       ... on
Quadrupole Moment Calculation                   ... off
Polarizability Calculation                      ... off
GBWName                                         ... DCM.gbw
Electron density file                           ... DCM.scfp
The origin for moment calculation is the CENTER OF MASS  = (-0.985960,  0.217907 -1.203274)

-------------
DIPOLE MOMENT
-------------
                                X             Y             Z
Electronic contribution:     -0.64035      31.65942      10.15504
Nuclear contribution   :      0.17153     -37.86696     -10.84758
                        -----------------------------------------
Total Dipole Moment    :     -0.46882      -6.20754      -0.69254
                        -----------------------------------------
Magnitude (a.u.)       :      6.26362
Magnitude (Debye)      :     15.92085



--------------------
Rotational spectrum 
--------------------
 
Rotational constants in cm-1:     0.019148     0.003828     0.003410 
Rotational constants in MHz :   574.041789   114.774889   102.233970 

 Dipole components along the rotational axes: 
x,y,z [a.u.] :     6.153180     0.322229    -1.125814 
x,y,z [Debye]:    15.640141     0.819041    -2.861591 

 
--------------------------------------------------------------------------
[[29443,1],0]: A high-performance Open MPI point-to-point messaging module
was unable to find any relevant network interfaces:

Module: OpenFabrics (openib)
  Host: compute-1-0

Another transport will be used instead, although this may result in
lower performance.

NOTE: You can disable this warning by setting the MCA parameter
btl_base_warn_component_unused to 0.
--------------------------------------------------------------------------
[compute-1-0.local:37124] 3 more processes have sent help message help-mpi-btl-base.txt / btl:no-nics
[compute-1-0.local:37124] Set MCA parameter "orte_base_help_aggregate" to 0 to see all help / error messages

Timings for individual modules:

Sum of individual times         ...   127200.394 sec (=2120.007 min)
GTO integral calculation        ...       50.995 sec (=   0.850 min)   0.0 %
SCF iterations                  ...    82159.048 sec (=1369.317 min)  64.6 %
SCF Gradient evaluation         ...    44978.875 sec (= 749.648 min)  35.4 %
Geometry relaxation             ...       11.476 sec (=   0.191 min)   0.0 %
                             ****ORCA TERMINATED NORMALLY****
TOTAL RUN TIME: 1 days 11 hours 20 minutes 12 seconds 35 msec
