Warning: no access to tty (Bad file descriptor).
Thus no job control in this shell.

                                 *****************
                                 * O   R   C   A *
                                 *****************

           --- An Ab Initio, DFT and Semiempirical electronic structure package ---

                  #######################################################
                  #                        -***-                        #
                  #          Department of theory and spectroscopy      #
                  #               Directorship: Frank Neese             #
                  #        Max Planck Institute fuer Kohlenforschung    #
                  #                Kaiser Wilhelm Platz 1               #
                  #                 D-45470 Muelheim/Ruhr               #
                  #                      Germany                        #
                  #                                                     #
                  #                  All rights reserved                #
                  #                        -***-                        #
                  #######################################################


                         Program Version 4.2.1 -  RELEASE  -


 With contributions from (in alphabetic order):
   Daniel Aravena         : Magnetic Suceptibility
   Michael Atanasov       : Ab Initio Ligand Field Theory (pilot matlab implementation)
   Alexander A. Auer      : GIAO ZORA, VPT2
   Ute Becker             : Parallelization
   Giovanni Bistoni       : ED, misc. LED, open-shell LED, HFLD
   Martin Brehm           : Molecular dynamics
   Dmytro Bykov           : SCF Hessian
   Vijay G. Chilkuri      : MRCI spin determinant printing, contributions to CSF-ICE
   Dipayan Datta          : RHF DLPNO-CCSD density
   Achintya Kumar Dutta   : EOM-CC, STEOM-CC
   Dmitry Ganyushin       : Spin-Orbit,Spin-Spin,Magnetic field MRCI
   Miquel Garcia          : C-PCM Hessian, Gaussian charge scheme
   Yang Guo               : DLPNO-NEVPT2, CIM, IAO-localization
   Andreas Hansen         : Spin unrestricted coupled pair/coupled cluster methods
   Benjamin Helmich-Paris : CASSCF linear response (MC-RPA)
   Lee Huntington         : MR-EOM, pCC
   Robert Izsak           : Overlap fitted RIJCOSX, COSX-SCS-MP3, EOM
   Christian Kollmar      : KDIIS, OOCD, Brueckner-CCSD(T), CCSD density
   Simone Kossmann        : Meta GGA functionals, TD-DFT gradient, OOMP2, MP2 Hessian
   Martin Krupicka        : AUTO-CI
   Lucas Lang             : DCDCAS
   Dagmar Lenk            : GEPOL surface, SMD
   Dimitrios Liakos       : Extrapolation schemes; Compound Job, initial MDCI parallelization
   Dimitrios Manganas     : Further ROCIS development; embedding schemes
   Dimitrios Pantazis     : SARC Basis sets
   Taras Petrenko         : DFT Hessian,TD-DFT gradient, ASA, ECA, R-Raman, ABS, FL, XAS/XES, NRVS
   Peter Pinski           : DLPNO-MP2, DLPNO-MP2 Gradient
   Christoph Reimann      : Effective Core Potentials
   Marius Retegan         : Local ZFS, SOC
   Christoph Riplinger    : Optimizer, TS searches, QM/MM, DLPNO-CCSD(T), (RO)-DLPNO pert. Triples
   Tobias Risthaus        : Range-separated hybrids, TD-DFT gradient, RPA, STAB
   Michael Roemelt        : Original ROCIS implementation
   Masaaki Saitow         : Open-shell DLPNO-CCSD energy and density
   Barbara Sandhoefer     : DKH picture change effects
   Avijit Sen             : IP-ROCIS
   Kantharuban Sivalingam : CASSCF convergence, NEVPT2, FIC-MRCI
   Bernardo de Souza      : ESD, SOC TD-DFT
   Georgi Stoychev        : AutoAux, RI-MP2 NMR
   Willem Van den Heuvel  : Paramagnetic NMR
   Boris Wezisla          : Elementary symmetry handling
   Frank Wennmohs         : Technical directorship


 We gratefully acknowledge several colleagues who have allowed us to
 interface, adapt or use parts of their codes:
   Stefan Grimme, W. Hujo, H. Kruse,             : VdW corrections, initial TS optimization,
                  C. Bannwarth                     DFT functionals, gCP, sTDA/sTD-DF
   Ed Valeev, F. Pavosevic, A. Kumar             : LibInt (2-el integral package), F12 methods
   Garnet Chan, S. Sharma, J. Yang, R. Olivares  : DMRG
   Ulf Ekstrom                                   : XCFun DFT Library
   Mihaly Kallay                                 : mrcc  (arbitrary order and MRCC methods)
   Andreas Klamt, Michael Diedenhofen            : otool_cosmo (COSMO solvation model)
   Jiri Pittner, Ondrej Demel                    : Mk-CCSD
   Frank Weinhold                                : gennbo (NPA and NBO analysis)
   Christopher J. Cramer and Donald G. Truhlar   : smd solvation model
   Lars Goerigk                                  : TD-DFT with DH, B97 family of functionals
   V. Asgeirsson, H. Jonsson                     : NEB implementation
   FAccTs GmbH                                   : IRC, NEB, NEB-TS, Multilevel, MM, QM/MM, CI optimization
   S Lehtola, MJT Oliveira, MAL Marques          : LibXC Library


 Your calculation uses the libint2 library for the computation of 2-el integrals
 For citations please refer to: http://libint.valeyev.net

 Your ORCA version has been built with support for libXC version: 4.2.3
 For citations please refer to: https://tddft.org/programs/libxc/

 This ORCA versions uses:
   CBLAS   interface :  Fast vector & matrix operations
   LAPACKE interface :  Fast linear algebra routines
   SCALAPACK package :  Parallel linear algebra routines



            !!!!!!!!!!!!!!!!!!!!!!!!!!!!!!!!!!!!!!!!!!!!!!!!!!!!!!!!
                                 INPUT ERROR
            UNRECOGNIZED OR DUPLICATED KEYWORD(S) IN SIMPLE INPUT LINE
                        DEF2-TZVP/J  
            !!!!!!!!!!!!!!!!!!!!!!!!!!!!!!!!!!!!!!!!!!!!!!!!!!!!!!!!
[file orca_main/maininp4.cpp, line 9978]: 

[file orca_main/maininp4.cpp, line 9978]: 

Warning: no access to tty (Bad file descriptor).
Thus no job control in this shell.

                                 *****************
                                 * O   R   C   A *
                                 *****************

           --- An Ab Initio, DFT and Semiempirical electronic structure package ---

                  #######################################################
                  #                        -***-                        #
                  #          Department of theory and spectroscopy      #
                  #               Directorship: Frank Neese             #
                  #        Max Planck Institute fuer Kohlenforschung    #
                  #                Kaiser Wilhelm Platz 1               #
                  #                 D-45470 Muelheim/Ruhr               #
                  #                      Germany                        #
                  #                                                     #
                  #                  All rights reserved                #
                  #                        -***-                        #
                  #######################################################


                         Program Version 4.2.1 -  RELEASE  -


 With contributions from (in alphabetic order):
   Daniel Aravena         : Magnetic Suceptibility
   Michael Atanasov       : Ab Initio Ligand Field Theory (pilot matlab implementation)
   Alexander A. Auer      : GIAO ZORA, VPT2
   Ute Becker             : Parallelization
   Giovanni Bistoni       : ED, misc. LED, open-shell LED, HFLD
   Martin Brehm           : Molecular dynamics
   Dmytro Bykov           : SCF Hessian
   Vijay G. Chilkuri      : MRCI spin determinant printing, contributions to CSF-ICE
   Dipayan Datta          : RHF DLPNO-CCSD density
   Achintya Kumar Dutta   : EOM-CC, STEOM-CC
   Dmitry Ganyushin       : Spin-Orbit,Spin-Spin,Magnetic field MRCI
   Miquel Garcia          : C-PCM Hessian, Gaussian charge scheme
   Yang Guo               : DLPNO-NEVPT2, CIM, IAO-localization
   Andreas Hansen         : Spin unrestricted coupled pair/coupled cluster methods
   Benjamin Helmich-Paris : CASSCF linear response (MC-RPA)
   Lee Huntington         : MR-EOM, pCC
   Robert Izsak           : Overlap fitted RIJCOSX, COSX-SCS-MP3, EOM
   Christian Kollmar      : KDIIS, OOCD, Brueckner-CCSD(T), CCSD density
   Simone Kossmann        : Meta GGA functionals, TD-DFT gradient, OOMP2, MP2 Hessian
   Martin Krupicka        : AUTO-CI
   Lucas Lang             : DCDCAS
   Dagmar Lenk            : GEPOL surface, SMD
   Dimitrios Liakos       : Extrapolation schemes; Compound Job, initial MDCI parallelization
   Dimitrios Manganas     : Further ROCIS development; embedding schemes
   Dimitrios Pantazis     : SARC Basis sets
   Taras Petrenko         : DFT Hessian,TD-DFT gradient, ASA, ECA, R-Raman, ABS, FL, XAS/XES, NRVS
   Peter Pinski           : DLPNO-MP2, DLPNO-MP2 Gradient
   Christoph Reimann      : Effective Core Potentials
   Marius Retegan         : Local ZFS, SOC
   Christoph Riplinger    : Optimizer, TS searches, QM/MM, DLPNO-CCSD(T), (RO)-DLPNO pert. Triples
   Tobias Risthaus        : Range-separated hybrids, TD-DFT gradient, RPA, STAB
   Michael Roemelt        : Original ROCIS implementation
   Masaaki Saitow         : Open-shell DLPNO-CCSD energy and density
   Barbara Sandhoefer     : DKH picture change effects
   Avijit Sen             : IP-ROCIS
   Kantharuban Sivalingam : CASSCF convergence, NEVPT2, FIC-MRCI
   Bernardo de Souza      : ESD, SOC TD-DFT
   Georgi Stoychev        : AutoAux, RI-MP2 NMR
   Willem Van den Heuvel  : Paramagnetic NMR
   Boris Wezisla          : Elementary symmetry handling
   Frank Wennmohs         : Technical directorship


 We gratefully acknowledge several colleagues who have allowed us to
 interface, adapt or use parts of their codes:
   Stefan Grimme, W. Hujo, H. Kruse,             : VdW corrections, initial TS optimization,
                  C. Bannwarth                     DFT functionals, gCP, sTDA/sTD-DF
   Ed Valeev, F. Pavosevic, A. Kumar             : LibInt (2-el integral package), F12 methods
   Garnet Chan, S. Sharma, J. Yang, R. Olivares  : DMRG
   Ulf Ekstrom                                   : XCFun DFT Library
   Mihaly Kallay                                 : mrcc  (arbitrary order and MRCC methods)
   Andreas Klamt, Michael Diedenhofen            : otool_cosmo (COSMO solvation model)
   Jiri Pittner, Ondrej Demel                    : Mk-CCSD
   Frank Weinhold                                : gennbo (NPA and NBO analysis)
   Christopher J. Cramer and Donald G. Truhlar   : smd solvation model
   Lars Goerigk                                  : TD-DFT with DH, B97 family of functionals
   V. Asgeirsson, H. Jonsson                     : NEB implementation
   FAccTs GmbH                                   : IRC, NEB, NEB-TS, Multilevel, MM, QM/MM, CI optimization
   S Lehtola, MJT Oliveira, MAL Marques          : LibXC Library


 Your calculation uses the libint2 library for the computation of 2-el integrals
 For citations please refer to: http://libint.valeyev.net

 Your ORCA version has been built with support for libXC version: 4.2.3
 For citations please refer to: https://tddft.org/programs/libxc/

 This ORCA versions uses:
   CBLAS   interface :  Fast vector & matrix operations
   LAPACKE interface :  Fast linear algebra routines
   SCALAPACK package :  Parallel linear algebra routines


[file orca_tools/Tool-Scanner/qcscan1.cpp, line 102]: 
	 Unknown identifier in CPCM block line    7  : 
	 Last token : Â
[file orca_tools/Tool-Scanner/qcscan1.cpp, line 102]: 
	 Unknown identifier in CPCM block line    7  : 
	 Last token : Â
Warning: no access to tty (Bad file descriptor).
Thus no job control in this shell.

                                 *****************
                                 * O   R   C   A *
                                 *****************

           --- An Ab Initio, DFT and Semiempirical electronic structure package ---

                  #######################################################
                  #                        -***-                        #
                  #          Department of theory and spectroscopy      #
                  #               Directorship: Frank Neese             #
                  #        Max Planck Institute fuer Kohlenforschung    #
                  #                Kaiser Wilhelm Platz 1               #
                  #                 D-45470 Muelheim/Ruhr               #
                  #                      Germany                        #
                  #                                                     #
                  #                  All rights reserved                #
                  #                        -***-                        #
                  #######################################################


                         Program Version 4.2.1 -  RELEASE  -


 With contributions from (in alphabetic order):
   Daniel Aravena         : Magnetic Suceptibility
   Michael Atanasov       : Ab Initio Ligand Field Theory (pilot matlab implementation)
   Alexander A. Auer      : GIAO ZORA, VPT2
   Ute Becker             : Parallelization
   Giovanni Bistoni       : ED, misc. LED, open-shell LED, HFLD
   Martin Brehm           : Molecular dynamics
   Dmytro Bykov           : SCF Hessian
   Vijay G. Chilkuri      : MRCI spin determinant printing, contributions to CSF-ICE
   Dipayan Datta          : RHF DLPNO-CCSD density
   Achintya Kumar Dutta   : EOM-CC, STEOM-CC
   Dmitry Ganyushin       : Spin-Orbit,Spin-Spin,Magnetic field MRCI
   Miquel Garcia          : C-PCM Hessian, Gaussian charge scheme
   Yang Guo               : DLPNO-NEVPT2, CIM, IAO-localization
   Andreas Hansen         : Spin unrestricted coupled pair/coupled cluster methods
   Benjamin Helmich-Paris : CASSCF linear response (MC-RPA)
   Lee Huntington         : MR-EOM, pCC
   Robert Izsak           : Overlap fitted RIJCOSX, COSX-SCS-MP3, EOM
   Christian Kollmar      : KDIIS, OOCD, Brueckner-CCSD(T), CCSD density
   Simone Kossmann        : Meta GGA functionals, TD-DFT gradient, OOMP2, MP2 Hessian
   Martin Krupicka        : AUTO-CI
   Lucas Lang             : DCDCAS
   Dagmar Lenk            : GEPOL surface, SMD
   Dimitrios Liakos       : Extrapolation schemes; Compound Job, initial MDCI parallelization
   Dimitrios Manganas     : Further ROCIS development; embedding schemes
   Dimitrios Pantazis     : SARC Basis sets
   Taras Petrenko         : DFT Hessian,TD-DFT gradient, ASA, ECA, R-Raman, ABS, FL, XAS/XES, NRVS
   Peter Pinski           : DLPNO-MP2, DLPNO-MP2 Gradient
   Christoph Reimann      : Effective Core Potentials
   Marius Retegan         : Local ZFS, SOC
   Christoph Riplinger    : Optimizer, TS searches, QM/MM, DLPNO-CCSD(T), (RO)-DLPNO pert. Triples
   Tobias Risthaus        : Range-separated hybrids, TD-DFT gradient, RPA, STAB
   Michael Roemelt        : Original ROCIS implementation
   Masaaki Saitow         : Open-shell DLPNO-CCSD energy and density
   Barbara Sandhoefer     : DKH picture change effects
   Avijit Sen             : IP-ROCIS
   Kantharuban Sivalingam : CASSCF convergence, NEVPT2, FIC-MRCI
   Bernardo de Souza      : ESD, SOC TD-DFT
   Georgi Stoychev        : AutoAux, RI-MP2 NMR
   Willem Van den Heuvel  : Paramagnetic NMR
   Boris Wezisla          : Elementary symmetry handling
   Frank Wennmohs         : Technical directorship


 We gratefully acknowledge several colleagues who have allowed us to
 interface, adapt or use parts of their codes:
   Stefan Grimme, W. Hujo, H. Kruse,             : VdW corrections, initial TS optimization,
                  C. Bannwarth                     DFT functionals, gCP, sTDA/sTD-DF
   Ed Valeev, F. Pavosevic, A. Kumar             : LibInt (2-el integral package), F12 methods
   Garnet Chan, S. Sharma, J. Yang, R. Olivares  : DMRG
   Ulf Ekstrom                                   : XCFun DFT Library
   Mihaly Kallay                                 : mrcc  (arbitrary order and MRCC methods)
   Andreas Klamt, Michael Diedenhofen            : otool_cosmo (COSMO solvation model)
   Jiri Pittner, Ondrej Demel                    : Mk-CCSD
   Frank Weinhold                                : gennbo (NPA and NBO analysis)
   Christopher J. Cramer and Donald G. Truhlar   : smd solvation model
   Lars Goerigk                                  : TD-DFT with DH, B97 family of functionals
   V. Asgeirsson, H. Jonsson                     : NEB implementation
   FAccTs GmbH                                   : IRC, NEB, NEB-TS, Multilevel, MM, QM/MM, CI optimization
   S Lehtola, MJT Oliveira, MAL Marques          : LibXC Library


 Your calculation uses the libint2 library for the computation of 2-el integrals
 For citations please refer to: http://libint.valeyev.net

 Your ORCA version has been built with support for libXC version: 4.2.3
 For citations please refer to: https://tddft.org/programs/libxc/

 This ORCA versions uses:
   CBLAS   interface :  Fast vector & matrix operations
   LAPACKE interface :  Fast linear algebra routines
   SCALAPACK package :  Parallel linear algebra routines


[file orca_tools/Tool-Scanner/qcscan1.cpp, line 102]: 
	 Unknown identifier in CPCM block line    7  : 
	 Last token : Â
[file orca_tools/Tool-Scanner/qcscan1.cpp, line 102]: 
	 Unknown identifier in CPCM block line    7  : 
	 Last token : Â
Warning: no access to tty (Bad file descriptor).
Thus no job control in this shell.

                                 *****************
                                 * O   R   C   A *
                                 *****************

           --- An Ab Initio, DFT and Semiempirical electronic structure package ---

                  #######################################################
                  #                        -***-                        #
                  #          Department of theory and spectroscopy      #
                  #               Directorship: Frank Neese             #
                  #        Max Planck Institute fuer Kohlenforschung    #
                  #                Kaiser Wilhelm Platz 1               #
                  #                 D-45470 Muelheim/Ruhr               #
                  #                      Germany                        #
                  #                                                     #
                  #                  All rights reserved                #
                  #                        -***-                        #
                  #######################################################


                         Program Version 4.2.1 -  RELEASE  -


 With contributions from (in alphabetic order):
   Daniel Aravena         : Magnetic Suceptibility
   Michael Atanasov       : Ab Initio Ligand Field Theory (pilot matlab implementation)
   Alexander A. Auer      : GIAO ZORA, VPT2
   Ute Becker             : Parallelization
   Giovanni Bistoni       : ED, misc. LED, open-shell LED, HFLD
   Martin Brehm           : Molecular dynamics
   Dmytro Bykov           : SCF Hessian
   Vijay G. Chilkuri      : MRCI spin determinant printing, contributions to CSF-ICE
   Dipayan Datta          : RHF DLPNO-CCSD density
   Achintya Kumar Dutta   : EOM-CC, STEOM-CC
   Dmitry Ganyushin       : Spin-Orbit,Spin-Spin,Magnetic field MRCI
   Miquel Garcia          : C-PCM Hessian, Gaussian charge scheme
   Yang Guo               : DLPNO-NEVPT2, CIM, IAO-localization
   Andreas Hansen         : Spin unrestricted coupled pair/coupled cluster methods
   Benjamin Helmich-Paris : CASSCF linear response (MC-RPA)
   Lee Huntington         : MR-EOM, pCC
   Robert Izsak           : Overlap fitted RIJCOSX, COSX-SCS-MP3, EOM
   Christian Kollmar      : KDIIS, OOCD, Brueckner-CCSD(T), CCSD density
   Simone Kossmann        : Meta GGA functionals, TD-DFT gradient, OOMP2, MP2 Hessian
   Martin Krupicka        : AUTO-CI
   Lucas Lang             : DCDCAS
   Dagmar Lenk            : GEPOL surface, SMD
   Dimitrios Liakos       : Extrapolation schemes; Compound Job, initial MDCI parallelization
   Dimitrios Manganas     : Further ROCIS development; embedding schemes
   Dimitrios Pantazis     : SARC Basis sets
   Taras Petrenko         : DFT Hessian,TD-DFT gradient, ASA, ECA, R-Raman, ABS, FL, XAS/XES, NRVS
   Peter Pinski           : DLPNO-MP2, DLPNO-MP2 Gradient
   Christoph Reimann      : Effective Core Potentials
   Marius Retegan         : Local ZFS, SOC
   Christoph Riplinger    : Optimizer, TS searches, QM/MM, DLPNO-CCSD(T), (RO)-DLPNO pert. Triples
   Tobias Risthaus        : Range-separated hybrids, TD-DFT gradient, RPA, STAB
   Michael Roemelt        : Original ROCIS implementation
   Masaaki Saitow         : Open-shell DLPNO-CCSD energy and density
   Barbara Sandhoefer     : DKH picture change effects
   Avijit Sen             : IP-ROCIS
   Kantharuban Sivalingam : CASSCF convergence, NEVPT2, FIC-MRCI
   Bernardo de Souza      : ESD, SOC TD-DFT
   Georgi Stoychev        : AutoAux, RI-MP2 NMR
   Willem Van den Heuvel  : Paramagnetic NMR
   Boris Wezisla          : Elementary symmetry handling
   Frank Wennmohs         : Technical directorship


 We gratefully acknowledge several colleagues who have allowed us to
 interface, adapt or use parts of their codes:
   Stefan Grimme, W. Hujo, H. Kruse,             : VdW corrections, initial TS optimization,
                  C. Bannwarth                     DFT functionals, gCP, sTDA/sTD-DF
   Ed Valeev, F. Pavosevic, A. Kumar             : LibInt (2-el integral package), F12 methods
   Garnet Chan, S. Sharma, J. Yang, R. Olivares  : DMRG
   Ulf Ekstrom                                   : XCFun DFT Library
   Mihaly Kallay                                 : mrcc  (arbitrary order and MRCC methods)
   Andreas Klamt, Michael Diedenhofen            : otool_cosmo (COSMO solvation model)
   Jiri Pittner, Ondrej Demel                    : Mk-CCSD
   Frank Weinhold                                : gennbo (NPA and NBO analysis)
   Christopher J. Cramer and Donald G. Truhlar   : smd solvation model
   Lars Goerigk                                  : TD-DFT with DH, B97 family of functionals
   V. Asgeirsson, H. Jonsson                     : NEB implementation
   FAccTs GmbH                                   : IRC, NEB, NEB-TS, Multilevel, MM, QM/MM, CI optimization
   S Lehtola, MJT Oliveira, MAL Marques          : LibXC Library


 Your calculation uses the libint2 library for the computation of 2-el integrals
 For citations please refer to: http://libint.valeyev.net

 Your ORCA version has been built with support for libXC version: 4.2.3
 For citations please refer to: https://tddft.org/programs/libxc/

 This ORCA versions uses:
   CBLAS   interface :  Fast vector & matrix operations
   LAPACKE interface :  Fast linear algebra routines
   SCALAPACK package :  Parallel linear algebra routines


[file orca_tools/Tool-Scanner/qcscan1.cpp, line 102]: 
	 Unknown identifier in CPCM block line    7  : 
	 Last token : Â
[file orca_tools/Tool-Scanner/qcscan1.cpp, line 102]: 
	 Unknown identifier in CPCM block line    7  : 
	 Last token : Â
Warning: no access to tty (Bad file descriptor).
Thus no job control in this shell.

                                 *****************
                                 * O   R   C   A *
                                 *****************

           --- An Ab Initio, DFT and Semiempirical electronic structure package ---

                  #######################################################
                  #                        -***-                        #
                  #          Department of theory and spectroscopy      #
                  #               Directorship: Frank Neese             #
                  #        Max Planck Institute fuer Kohlenforschung    #
                  #                Kaiser Wilhelm Platz 1               #
                  #                 D-45470 Muelheim/Ruhr               #
                  #                      Germany                        #
                  #                                                     #
                  #                  All rights reserved                #
                  #                        -***-                        #
                  #######################################################


                         Program Version 4.2.1 -  RELEASE  -


 With contributions from (in alphabetic order):
   Daniel Aravena         : Magnetic Suceptibility
   Michael Atanasov       : Ab Initio Ligand Field Theory (pilot matlab implementation)
   Alexander A. Auer      : GIAO ZORA, VPT2
   Ute Becker             : Parallelization
   Giovanni Bistoni       : ED, misc. LED, open-shell LED, HFLD
   Martin Brehm           : Molecular dynamics
   Dmytro Bykov           : SCF Hessian
   Vijay G. Chilkuri      : MRCI spin determinant printing, contributions to CSF-ICE
   Dipayan Datta          : RHF DLPNO-CCSD density
   Achintya Kumar Dutta   : EOM-CC, STEOM-CC
   Dmitry Ganyushin       : Spin-Orbit,Spin-Spin,Magnetic field MRCI
   Miquel Garcia          : C-PCM Hessian, Gaussian charge scheme
   Yang Guo               : DLPNO-NEVPT2, CIM, IAO-localization
   Andreas Hansen         : Spin unrestricted coupled pair/coupled cluster methods
   Benjamin Helmich-Paris : CASSCF linear response (MC-RPA)
   Lee Huntington         : MR-EOM, pCC
   Robert Izsak           : Overlap fitted RIJCOSX, COSX-SCS-MP3, EOM
   Christian Kollmar      : KDIIS, OOCD, Brueckner-CCSD(T), CCSD density
   Simone Kossmann        : Meta GGA functionals, TD-DFT gradient, OOMP2, MP2 Hessian
   Martin Krupicka        : AUTO-CI
   Lucas Lang             : DCDCAS
   Dagmar Lenk            : GEPOL surface, SMD
   Dimitrios Liakos       : Extrapolation schemes; Compound Job, initial MDCI parallelization
   Dimitrios Manganas     : Further ROCIS development; embedding schemes
   Dimitrios Pantazis     : SARC Basis sets
   Taras Petrenko         : DFT Hessian,TD-DFT gradient, ASA, ECA, R-Raman, ABS, FL, XAS/XES, NRVS
   Peter Pinski           : DLPNO-MP2, DLPNO-MP2 Gradient
   Christoph Reimann      : Effective Core Potentials
   Marius Retegan         : Local ZFS, SOC
   Christoph Riplinger    : Optimizer, TS searches, QM/MM, DLPNO-CCSD(T), (RO)-DLPNO pert. Triples
   Tobias Risthaus        : Range-separated hybrids, TD-DFT gradient, RPA, STAB
   Michael Roemelt        : Original ROCIS implementation
   Masaaki Saitow         : Open-shell DLPNO-CCSD energy and density
   Barbara Sandhoefer     : DKH picture change effects
   Avijit Sen             : IP-ROCIS
   Kantharuban Sivalingam : CASSCF convergence, NEVPT2, FIC-MRCI
   Bernardo de Souza      : ESD, SOC TD-DFT
   Georgi Stoychev        : AutoAux, RI-MP2 NMR
   Willem Van den Heuvel  : Paramagnetic NMR
   Boris Wezisla          : Elementary symmetry handling
   Frank Wennmohs         : Technical directorship


 We gratefully acknowledge several colleagues who have allowed us to
 interface, adapt or use parts of their codes:
   Stefan Grimme, W. Hujo, H. Kruse,             : VdW corrections, initial TS optimization,
                  C. Bannwarth                     DFT functionals, gCP, sTDA/sTD-DF
   Ed Valeev, F. Pavosevic, A. Kumar             : LibInt (2-el integral package), F12 methods
   Garnet Chan, S. Sharma, J. Yang, R. Olivares  : DMRG
   Ulf Ekstrom                                   : XCFun DFT Library
   Mihaly Kallay                                 : mrcc  (arbitrary order and MRCC methods)
   Andreas Klamt, Michael Diedenhofen            : otool_cosmo (COSMO solvation model)
   Jiri Pittner, Ondrej Demel                    : Mk-CCSD
   Frank Weinhold                                : gennbo (NPA and NBO analysis)
   Christopher J. Cramer and Donald G. Truhlar   : smd solvation model
   Lars Goerigk                                  : TD-DFT with DH, B97 family of functionals
   V. Asgeirsson, H. Jonsson                     : NEB implementation
   FAccTs GmbH                                   : IRC, NEB, NEB-TS, Multilevel, MM, QM/MM, CI optimization
   S Lehtola, MJT Oliveira, MAL Marques          : LibXC Library


 Your calculation uses the libint2 library for the computation of 2-el integrals
 For citations please refer to: http://libint.valeyev.net

 Your ORCA version has been built with support for libXC version: 4.2.3
 For citations please refer to: https://tddft.org/programs/libxc/

 This ORCA versions uses:
   CBLAS   interface :  Fast vector & matrix operations
   LAPACKE interface :  Fast linear algebra routines
   SCALAPACK package :  Parallel linear algebra routines


[file orca_tools/Tool-Scanner/qcscan1.cpp, line 102]: 
	 Unknown identifier in CPCM block line    7  : 
	 Last token : Â
[file orca_tools/Tool-Scanner/qcscan1.cpp, line 102]: 
	 Unknown identifier in CPCM block line    7  : 
	 Last token : Â
Warning: no access to tty (Bad file descriptor).
Thus no job control in this shell.

                                 *****************
                                 * O   R   C   A *
                                 *****************

           --- An Ab Initio, DFT and Semiempirical electronic structure package ---

                  #######################################################
                  #                        -***-                        #
                  #          Department of theory and spectroscopy      #
                  #               Directorship: Frank Neese             #
                  #        Max Planck Institute fuer Kohlenforschung    #
                  #                Kaiser Wilhelm Platz 1               #
                  #                 D-45470 Muelheim/Ruhr               #
                  #                      Germany                        #
                  #                                                     #
                  #                  All rights reserved                #
                  #                        -***-                        #
                  #######################################################


                         Program Version 4.2.1 -  RELEASE  -


 With contributions from (in alphabetic order):
   Daniel Aravena         : Magnetic Suceptibility
   Michael Atanasov       : Ab Initio Ligand Field Theory (pilot matlab implementation)
   Alexander A. Auer      : GIAO ZORA, VPT2
   Ute Becker             : Parallelization
   Giovanni Bistoni       : ED, misc. LED, open-shell LED, HFLD
   Martin Brehm           : Molecular dynamics
   Dmytro Bykov           : SCF Hessian
   Vijay G. Chilkuri      : MRCI spin determinant printing, contributions to CSF-ICE
   Dipayan Datta          : RHF DLPNO-CCSD density
   Achintya Kumar Dutta   : EOM-CC, STEOM-CC
   Dmitry Ganyushin       : Spin-Orbit,Spin-Spin,Magnetic field MRCI
   Miquel Garcia          : C-PCM Hessian, Gaussian charge scheme
   Yang Guo               : DLPNO-NEVPT2, CIM, IAO-localization
   Andreas Hansen         : Spin unrestricted coupled pair/coupled cluster methods
   Benjamin Helmich-Paris : CASSCF linear response (MC-RPA)
   Lee Huntington         : MR-EOM, pCC
   Robert Izsak           : Overlap fitted RIJCOSX, COSX-SCS-MP3, EOM
   Christian Kollmar      : KDIIS, OOCD, Brueckner-CCSD(T), CCSD density
   Simone Kossmann        : Meta GGA functionals, TD-DFT gradient, OOMP2, MP2 Hessian
   Martin Krupicka        : AUTO-CI
   Lucas Lang             : DCDCAS
   Dagmar Lenk            : GEPOL surface, SMD
   Dimitrios Liakos       : Extrapolation schemes; Compound Job, initial MDCI parallelization
   Dimitrios Manganas     : Further ROCIS development; embedding schemes
   Dimitrios Pantazis     : SARC Basis sets
   Taras Petrenko         : DFT Hessian,TD-DFT gradient, ASA, ECA, R-Raman, ABS, FL, XAS/XES, NRVS
   Peter Pinski           : DLPNO-MP2, DLPNO-MP2 Gradient
   Christoph Reimann      : Effective Core Potentials
   Marius Retegan         : Local ZFS, SOC
   Christoph Riplinger    : Optimizer, TS searches, QM/MM, DLPNO-CCSD(T), (RO)-DLPNO pert. Triples
   Tobias Risthaus        : Range-separated hybrids, TD-DFT gradient, RPA, STAB
   Michael Roemelt        : Original ROCIS implementation
   Masaaki Saitow         : Open-shell DLPNO-CCSD energy and density
   Barbara Sandhoefer     : DKH picture change effects
   Avijit Sen             : IP-ROCIS
   Kantharuban Sivalingam : CASSCF convergence, NEVPT2, FIC-MRCI
   Bernardo de Souza      : ESD, SOC TD-DFT
   Georgi Stoychev        : AutoAux, RI-MP2 NMR
   Willem Van den Heuvel  : Paramagnetic NMR
   Boris Wezisla          : Elementary symmetry handling
   Frank Wennmohs         : Technical directorship


 We gratefully acknowledge several colleagues who have allowed us to
 interface, adapt or use parts of their codes:
   Stefan Grimme, W. Hujo, H. Kruse,             : VdW corrections, initial TS optimization,
                  C. Bannwarth                     DFT functionals, gCP, sTDA/sTD-DF
   Ed Valeev, F. Pavosevic, A. Kumar             : LibInt (2-el integral package), F12 methods
   Garnet Chan, S. Sharma, J. Yang, R. Olivares  : DMRG
   Ulf Ekstrom                                   : XCFun DFT Library
   Mihaly Kallay                                 : mrcc  (arbitrary order and MRCC methods)
   Andreas Klamt, Michael Diedenhofen            : otool_cosmo (COSMO solvation model)
   Jiri Pittner, Ondrej Demel                    : Mk-CCSD
   Frank Weinhold                                : gennbo (NPA and NBO analysis)
   Christopher J. Cramer and Donald G. Truhlar   : smd solvation model
   Lars Goerigk                                  : TD-DFT with DH, B97 family of functionals
   V. Asgeirsson, H. Jonsson                     : NEB implementation
   FAccTs GmbH                                   : IRC, NEB, NEB-TS, Multilevel, MM, QM/MM, CI optimization
   S Lehtola, MJT Oliveira, MAL Marques          : LibXC Library


 Your calculation uses the libint2 library for the computation of 2-el integrals
 For citations please refer to: http://libint.valeyev.net

 Your ORCA version has been built with support for libXC version: 4.2.3
 For citations please refer to: https://tddft.org/programs/libxc/

 This ORCA versions uses:
   CBLAS   interface :  Fast vector & matrix operations
   LAPACKE interface :  Fast linear algebra routines
   SCALAPACK package :  Parallel linear algebra routines


Your calculation utilizes the atom-pairwise dispersion correction
with the zero-damping scheme (D30)
Cite in your paper:
S.Grimme, J.Antony, S.Ehrlich and H.Krieg, J.Chem.Phys., 132, (2010), 154104 
   

XCFun DFT library Copyright 2009-2010 Ulf Ekstrom and contributors.
See http://admol.org/xcfun for more information. This is free soft-
ware; see the source code for copying conditions. There is ABSOLUTELY
NO WARRANTY; not even for MERCHANTABILITY or FITNESS FOR A PARTICULAR
PURPOSE. For details see the documentation. Scientific users of this 
library should cite U. Ekstrom, L. Visscher, R. Bast, A. J. Thorvald-
sen and K. Ruud; J.Chem.Theor.Comp. 2010, DOI: 10.1021/ct100117s
XCFun Version 0.99 
----- Orbital basis set information -----
Your calculation utilizes the basis: def2-TZVP
   F. Weigend and R. Ahlrichs, Phys. Chem. Chem. Phys. 7, 3297 (2005).

----- AuxJ basis set information -----
Your calculation utilizes the auxiliary basis: def2/J
   F. Weigend, Phys. Chem. Chem. Phys. 8, 1057 (2006).

================================================================================
                                        WARNINGS
                       Please study these warnings very carefully!
================================================================================


WARNING: Geometry Optimization
  ===> : Switching off AutoStart
         For restart on a previous wavefunction, please use MOREAD

INFO   : the flag for use of LIBINT has been found!

================================================================================
                                       INPUT FILE
================================================================================
NAME = F4-DMDCNQ.inp
|  1> # avogadro generated ORCA input file 
|  2> # Basic Mode
|  3> # 
|  4> ! wB97X-D3 OPT def2-TZVP def2/J CPCM
|  5> %cpcm
|  6>   epsilon 3
|  7> end
|  8> %pal
|  9>  nprocs 4
| 10> end
| 11>  
| 12> 
| 13> * xyz 0 1
| 14>    C       -5.16769        3.58406        0.00476
| 15>    C       -3.77726        2.64967        0.00223
| 16>    C       -3.86477        1.16971        0.00155
| 17>    C       -2.37634        3.13160        0.00027
| 18>    C       -2.08629        4.50922       -0.00354
| 19>    C       -1.07404        2.36759        0.00091
| 20>    F       -2.99804        5.46583       -0.01014
| 21>    F       -1.02407        1.00526        0.00448
| 22>    C       -0.83524        5.09923       -0.00109
| 23>    C        0.26742        3.01306        0.00289
| 24>    C        0.40962        4.43685        0.00538
| 25>    C        1.57892        5.24525        0.01606
| 26>    C        1.42701        6.70934        0.01483
| 27>    C        3.07844        4.98771        0.02587
| 28>    F       -0.94067        6.44847       -0.00172
| 29>    F        1.40516        2.24873        0.00862
| 30>    O        3.70264        3.78356       -0.01113
| 31>    C        5.09820        3.77968        0.00070
| 32>    H        5.48046        4.36511       -0.87045
| 33>    H        5.52612        2.76374       -0.03862
| 34>    H        5.46397        4.29299        0.92306
| 35>    O        3.80533        5.98599        0.05902
| 36>    N       -3.78830        0.00604        0.00072
| 37>    N        1.31316        7.86268        0.01388
| 38>    O       -5.05681        4.78528        0.01616
| 39>    O       -6.52809        3.23516        0.00041
| 40>    C       -7.61165        4.20654        0.00437
| 41>    H       -7.34575        5.30600        0.00801
| 42>    H       -8.29723        4.10798        0.86819
| 43>    H       -8.29695        4.11340       -0.85985
| 44> *
| 45> 
| 46> 
| 47>                          ****END OF INPUT****
================================================================================

                       *****************************
                       * Geometry Optimization Run *
                       *****************************

Geometry optimization settings:
Update method            Update   .... BFGS
Choice of coordinates    CoordSys .... Z-matrix Internals
Initial Hessian          InHess   .... Almoef's Model

Convergence Tolerances:
Energy Change            TolE     ....  5.0000e-06 Eh
Max. Gradient            TolMAXG  ....  3.0000e-04 Eh/bohr
RMS Gradient             TolRMSG  ....  1.0000e-04 Eh/bohr
Max. Displacement        TolMAXD  ....  4.0000e-03 bohr
RMS Displacement         TolRMSD  ....  2.0000e-03 bohr
Strict Convergence                ....  False
------------------------------------------------------------------------------
                        ORCA OPTIMIZATION COORDINATE SETUP
------------------------------------------------------------------------------

The optimization will be done in new redundant internal coordinates
Making redundant internal coordinates   ...  (new redundants) done
Evaluating the initial hessian          ...  (Almloef) done
Evaluating the coordinates              ...  done
Calculating the B-matrix                .... done
Calculating the G-matrix                .... done
Diagonalizing the G-matrix              .... done
Small eigenvalue found = 2.481e-03
Small eigenvalue found = 7.006e-03
Small eigenvalue found = 1.060e-02
The first mode is                       ....   45
The number of degrees of freedom        ....   84

    -----------------------------------------------------------------
                    Redundant Internal Coordinates


    -----------------------------------------------------------------
         Definition                    Initial Value    Approx d2E/dq
    -----------------------------------------------------------------
      1. B(C   1,C   0)                  1.6752         0.219117   
      2. B(C   2,C   1)                  1.4825         0.444722   
      3. B(C   3,C   1)                  1.4815         0.446436   
      4. B(C   4,C   3)                  1.4078         0.585187   
      5. B(C   5,C   3)                  1.5099         0.402253   
      6. B(F   6,C   4)                  1.3215         0.668668   
      7. B(F   7,C   5)                  1.3633         0.573645   
      8. B(C   8,C   4)                  1.3832         0.640599   
      9. B(C   9,C   5)                  1.4887         0.434821   
     10. B(C  10,C   9)                  1.4309         0.537680   
     11. B(C  10,C   8)                  1.4101         0.580261   
     12. B(C  11,C  10)                  1.4216         0.556360   
     13. B(C  12,C  11)                  1.4720         0.462373   
     14. B(C  13,C  11)                  1.5215         0.385414   
     15. B(F  14,C   8)                  1.3534         0.594887   
     16. B(F  15,C   9)                  1.3707         0.558259   
     17. B(O  16,C  13)                  1.3568         0.632128   
     18. B(C  17,O  16)                  1.3956         0.548171   
     19. B(H  18,C  17)                  1.1170         0.326062   
     20. B(H  19,C  17)                  1.1031         0.343200   
     21. B(H  20,C  17)                  1.1171         0.325918   
     22. B(O  21,C  13)                  1.2353         0.987751   
     23. B(N  22,C   2)                  1.1662         1.273403   
     24. B(N  23,C  12)                  1.1589         1.307698   
     25. B(O  24,C   0)                  1.2064         1.098572   
     26. B(O  25,C   0)                  1.4044         0.530695   
     27. B(C  26,O  25)                  1.4552         0.440356   
     28. B(H  27,C  26)                  1.1312         0.309565   
     29. B(H  28,C  26)                  1.1072         0.338035   
     30. B(H  29,C  26)                  1.1069         0.338446   
     31. A(C   1,C   0,O  25)          131.7131         0.350087   
     32. A(O  24,C   0,O  25)          109.6591         0.461965   
     33. A(C   1,C   0,O  24)          118.6274         0.396825   
     34. A(C   0,C   1,C   2)          120.5177         0.341930   
     35. A(C   2,C   1,C   3)          112.3676         0.386138   
     36. A(C   0,C   1,C   3)          127.1146         0.342151   
     37. A(C   1,C   2,N  22)          172.8563         0.462594   
     38. A(C   1,C   3,C   4)          120.8734         0.405183   
     39. A(C   1,C   3,C   5)          130.6177         0.379464   
     40. A(C   4,C   3,C   5)          108.5089         0.397812   
     41. A(C   3,C   4,F   6)          124.4861         0.430688   
     42. A(C   3,C   4,C   8)          127.1382         0.432111   
     43. A(F   6,C   4,C   8)          108.3757         0.437757   
     44. A(F   7,C   5,C   9)          113.5945         0.397581   
     45. A(C   3,C   5,C   9)          123.9060         0.377736   
     46. A(C   3,C   5,F   7)          122.4991         0.392191   
     47. A(C   4,C   8,C  10)          126.7339         0.431455   
     48. A(C  10,C   8,F  14)          122.4849         0.421128   
     49. A(C   4,C   8,F  14)          110.7810         0.428649   
     50. A(C   5,C   9,C  10)          121.3990         0.397336   
     51. A(C  10,C   9,F  15)          118.1888         0.410787   
     52. A(C   5,C   9,F  15)          120.4115         0.395688   
     53. A(C   8,C  10,C   9)          112.3128         0.418145   
     54. A(C   9,C  10,C  11)          130.3612         0.415027   
     55. A(C   8,C  10,C  11)          117.3258         0.420700   
     56. A(C  10,C  11,C  12)          118.7332         0.404080   
     57. A(C  12,C  11,C  13)          105.6690         0.378959   
     58. A(C  10,C  11,C  13)          135.5975         0.391361   
     59. L(C  11,C  12,N  23,C  13, 2) 179.9985         0.468174   
     60. L(C  11,C  12,N  23,C  13, 1) 179.7139         0.468174   
     61. A(C  11,C  13,O  16)          127.1167         0.397665   
     62. A(O  16,C  13,O  21)          116.5649         0.467798   
     63. A(C  11,C  13,O  21)          116.3148         0.430477   
     64. A(C  13,O  16,C  17)          117.5332         0.420533   
     65. A(H  18,C  17,H  20)          106.9203         0.281949   
     66. A(O  16,C  17,H  20)          109.4584         0.337862   
     67. A(H  18,C  17,H  19)          108.7923         0.284218   
     68. A(O  16,C  17,H  19)          112.9653         0.340789   
     69. A(O  16,C  17,H  18)          109.5196         0.337887   
     70. A(H  19,C  17,H  20)          109.0019         0.284199   
     71. A(C   0,O  25,C  26)          123.7393         0.392254   
     72. A(H  27,C  26,H  29)          103.2875         0.281329   
     73. A(O  25,C  26,H  29)          113.7475         0.327857   
     74. A(H  27,C  26,H  28)          103.2714         0.281277   
     75. A(O  25,C  26,H  28)          113.8131         0.327792   
     76. A(H  28,C  26,H  29)          102.6085         0.285198   
     77. A(O  25,C  26,H  27)          118.2799         0.323083   
     78. D(C   2,C   1,C   0,O  25)     -0.3354         0.004105   
     79. D(C   3,C   1,C   0,O  24)     -0.5992         0.004105   
     80. D(C   2,C   1,C   0,O  24)    179.4099         0.004105   
     81. D(C   3,C   1,C   0,O  25)    179.6556         0.004105   
     82. D(N  22,C   2,C   1,C   3)     -0.0254         0.012305   
     83. D(N  22,C   2,C   1,C   0)    179.9667         0.012305   
     84. D(C   4,C   3,C   1,C   0)     -0.1865         0.013590   
     85. D(C   5,C   3,C   1,C   0)    179.8518         0.013590   
     86. D(C   5,C   3,C   1,C   2)     -0.1566         0.013590   
     87. D(C   4,C   3,C   1,C   2)    179.8050         0.013590   
     88. D(C   8,C   4,C   3,C   5)     -0.2710         0.023547   
     89. D(F   6,C   4,C   3,C   5)    179.7331         0.023547   
     90. D(C   8,C   4,C   3,C   1)    179.7596         0.023547   
     91. D(F   6,C   4,C   3,C   1)     -0.2363         0.023547   
     92. D(F   7,C   5,C   3,C   1)     -0.0417         0.011119   
     93. D(C   9,C   5,C   3,C   4)      0.2309         0.011119   
     94. D(C   9,C   5,C   3,C   1)   -179.8038         0.011119   
     95. D(F   7,C   5,C   3,C   4)    179.9930         0.011119   
     96. D(F  14,C   8,C   4,F   6)      0.2008         0.028515   
     97. D(F  14,C   8,C   4,C   3)   -179.7957         0.028515   
     98. D(C  10,C   8,C   4,F   6)   -179.9845         0.028515   
     99. D(C  10,C   8,C   4,C   3)      0.0191         0.028515   
    100. D(F  15,C   9,C   5,F   7)     -0.0360         0.012909   
    101. D(F  15,C   9,C   5,C   3)    179.7450         0.012909   
    102. D(C  10,C   9,C   5,F   7)   -179.7327         0.012909   
    103. D(C  10,C   9,C   5,C   3)      0.0483         0.012909   
    104. D(C  11,C  10,C   8,F  14)      0.2129         0.023134   
    105. D(C  11,C  10,C   8,C   4)   -179.5818         0.023134   
    106. D(C   9,C  10,C   8,F  14)   -179.9201         0.023134   
    107. D(C   8,C  10,C   9,C   5)     -0.2967         0.019749   
    108. D(C   9,C  10,C   8,C   4)      0.2852         0.023134   
    109. D(C  11,C  10,C   9,F  15)     -0.1550         0.019749   
    110. D(C  11,C  10,C   9,C   5)    179.5482         0.019749   
    111. D(C   8,C  10,C   9,F  15)   -179.9999         0.019749   
    112. D(C  13,C  11,C  10,C   9)      0.1465         0.021193   
    113. D(C  13,C  11,C  10,C   8)    179.9850         0.021193   
    114. D(C  12,C  11,C  10,C   9)    179.9444         0.021193   
    115. D(C  12,C  11,C  10,C   8)     -0.2171         0.021193   
    116. D(O  21,C  13,C  11,C  12)      1.4789         0.010261   
    117. D(O  21,C  13,C  11,C  10)   -178.7052         0.010261   
    118. D(O  16,C  13,C  11,C  12)   -177.8143         0.010261   
    119. D(O  16,C  13,C  11,C  10)      2.0016         0.010261   
    120. D(C  17,O  16,C  13,O  21)      0.4246         0.029401   
    121. D(C  17,O  16,C  13,C  11)    179.7164         0.029401   
    122. D(H  20,C  17,O  16,C  13)     58.7568         0.023942   
    123. D(H  19,C  17,O  16,C  13)   -179.5909         0.023942   
    124. D(H  18,C  17,O  16,C  13)    -58.1629         0.023942   
    125. D(C  26,O  25,C   0,O  24)      0.2055         0.020308   
    126. D(C  26,O  25,C   0,C   1)    179.9681         0.020308   
    127. D(H  29,C  26,O  25,C   0)    121.6467         0.015271   
    128. D(H  28,C  26,O  25,C   0)   -121.2989         0.015271   
    129. D(H  27,C  26,O  25,C   0)      0.1921         0.015271   
    -----------------------------------------------------------------

Number of atoms                         .... 30
Number of degrees of freedom            .... 129

         *************************************************************
         *                GEOMETRY OPTIMIZATION CYCLE   1            *
         *************************************************************
---------------------------------
CARTESIAN COORDINATES (ANGSTROEM)
---------------------------------
  C     -5.167690    3.584060    0.004760
  C     -3.777260    2.649670    0.002230
  C     -3.864770    1.169710    0.001550
  C     -2.376340    3.131600    0.000270
  C     -2.086290    4.509220   -0.003540
  C     -1.074040    2.367590    0.000910
  F     -2.998040    5.465830   -0.010140
  F     -1.024070    1.005260    0.004480
  C     -0.835240    5.099230   -0.001090
  C      0.267420    3.013060    0.002890
  C      0.409620    4.436850    0.005380
  C      1.578920    5.245250    0.016060
  C      1.427010    6.709340    0.014830
  C      3.078440    4.987710    0.025870
  F     -0.940670    6.448470   -0.001720
  F      1.405160    2.248730    0.008620
  O      3.702640    3.783560   -0.011130
  C      5.098200    3.779680    0.000700
  H      5.480460    4.365110   -0.870450
  H      5.526120    2.763740   -0.038620
  H      5.463970    4.292990    0.923060
  O      3.805330    5.985990    0.059020
  N     -3.788300    0.006040    0.000720
  N      1.313160    7.862680    0.013880
  O     -5.056810    4.785280    0.016160
  O     -6.528090    3.235160    0.000410
  C     -7.611650    4.206540    0.004370
  H     -7.345750    5.306000    0.008010
  H     -8.297230    4.107980    0.868190
  H     -8.296950    4.113400   -0.859850

----------------------------
CARTESIAN COORDINATES (A.U.)
----------------------------
  NO LB      ZA    FRAG     MASS         X           Y           Z
   0 C     6.0000    0    12.011   -9.765519    6.772892    0.008995
   1 C     6.0000    0    12.011   -7.137987    5.007151    0.004214
   2 C     6.0000    0    12.011   -7.303357    2.210432    0.002929
   3 C     6.0000    0    12.011   -4.490632    5.917866    0.000510
   4 C     6.0000    0    12.011   -3.942517    8.521191   -0.006690
   5 C     6.0000    0    12.011   -2.029641    4.474097    0.001720
   6 F     9.0000    0    18.998   -5.665475   10.328922   -0.019162
   7 F     9.0000    0    18.998   -1.935212    1.899666    0.008466
   8 C     6.0000    0    12.011   -1.578375    9.636148   -0.002060
   9 C     6.0000    0    12.011    0.505351    5.693858    0.005461
  10 C     6.0000    0    12.011    0.774070    8.384431    0.010167
  11 C     6.0000    0    12.011    2.983726    9.912086    0.030349
  12 C     6.0000    0    12.011    2.696658   12.678815    0.028025
  13 C     6.0000    0    12.011    5.817409    9.425406    0.048887
  14 F     9.0000    0    18.998   -1.777609   12.185842   -0.003250
  15 F     9.0000    0    18.998    2.655368    4.249484    0.016289
  16 O     8.0000    0    15.999    6.996976    7.149892   -0.021033
  17 C     6.0000    0    12.011    9.634202    7.142560    0.001323
  18 H     1.0000    0     1.008   10.356568    8.248862   -1.644912
  19 H     1.0000    0     1.008   10.442853    5.222712   -0.072981
  20 H     1.0000    0     1.008   10.325407    8.112575    1.744331
  21 O     8.0000    0    15.999    7.191032   11.311882    0.111532
  22 N     7.0000    0    14.007   -7.158850    0.011414    0.001361
  23 N     7.0000    0    14.007    2.481513   14.858312    0.026229
  24 O     8.0000    0    15.999   -9.555986    9.042869    0.030538
  25 O     8.0000    0    15.999  -12.336302    6.113566    0.000775
  26 C     6.0000    0    12.011  -14.383934    7.949209    0.008258
  27 H     1.0000    0     1.008  -13.881456   10.026887    0.015137
  28 H     1.0000    0     1.008  -15.679492    7.762957    1.640641
  29 H     1.0000    0     1.008  -15.678963    7.773199   -1.624881

--------------------------------
INTERNAL COORDINATES (ANGSTROEM)
--------------------------------
 C      0   0   0     0.000000000000     0.00000000     0.00000000
 C      1   0   0     1.675227345139     0.00000000     0.00000000
 C      2   1   0     1.482545130544   120.51774410     0.00000000
 C      2   1   3     1.481498299999   127.11464665   179.99092075
 C      4   2   1     1.407828250533   120.87343827   359.81350701
 C      4   2   1     1.509866543672   130.61766743   179.85184143
 F      5   4   2     1.321527265931   124.48608949   359.76374465
 F      6   4   2     1.363250811370   122.49913463   359.95825904
 C      5   4   2     1.383200601901   127.13819180   179.75964812
 C      6   4   2     1.488674031781   123.90601666   180.19618586
 C      9   5   4     1.410129619893   126.73385974     0.00000000
 C     11   9   5     1.421579091152   117.32580101   180.41824757
 C     12  11   9     1.471950301165   118.73322541   359.78289137
 C     12  11   9     1.521506923448   135.59753522   179.98504147
 F      9   5   4     1.353353043149   110.78100353   180.20433004
 F     10   6   4     1.370651483565   120.41151609   179.74503393
 O     14  12  11     1.356824182604   127.11674458     2.00156398
 C     17  14  12     1.395615533340   117.53321300   179.71635084
 H     18  17  14     1.117028788796   109.51964467   301.83713739
 H     18  17  14     1.103084617063   112.96528081   180.40910351
 H     18  17  14     1.117149416417   109.45836474    58.75680660
 O     14  12  11     1.235326253667   116.31484369   181.29480462
 N      3   2   1     1.166180182776   172.85627054   179.96672373
 N     13  12  11     1.158946021435   179.71393221   180.33462639
 O      1   2   3     1.206380463535   118.62738888   179.40988402
 O      1   2   3     1.404435221895   131.71310394   359.66463348
 C     26   1   2     1.455230929990   123.73925633   179.96808151
 H     27  26   1     1.131162389403   118.27989918     0.19206407
 H     27  26   1     1.107212266189   113.81307512   238.70111026
 H     27  26   1     1.106881817540   113.74748486   121.64674533

---------------------------
INTERNAL COORDINATES (A.U.)
---------------------------
 C      0   0   0     0.000000000000     0.00000000     0.00000000
 C      1   0   0     3.165720894368     0.00000000     0.00000000
 C      2   1   0     2.801604277907   120.51774410     0.00000000
 C      2   1   3     2.799626054868   127.11464665   179.99092075
 C      4   2   1     2.660409837106   120.87343827   359.81350701
 C      4   2   1     2.853234266310   130.61766743   179.85184143
 F      5   4   2     2.497324611120   124.48608949   359.76374465
 F      6   4   2     2.576170685335   122.49913463   359.95825904
 C      5   4   2     2.613870325868   127.13819180   179.75964812
 C      6   4   2     2.813186222747   123.90601666   180.19618586
 C      9   5   4     2.664758794929   126.73385974     0.00000000
 C     11   9   5     2.686395159986   117.32580101   180.41824757
 C     12  11   9     2.781582951945   118.73322541   359.78289137
 C     12  11   9     2.875231396182   135.59753522   179.98504147
 F      9   5   4     2.557466614060   110.78100353   180.20433004
 F     10   6   4     2.590155928991   120.41151609   179.74503393
 O     14  12  11     2.564026117004   127.11674458     2.00156398
 C     17  14  12     2.637331146259   117.53321300   179.71635084
 H     18  17  14     2.110878494531   109.51964467   301.83713739
 H     18  17  14     2.084527828790   112.96528081   180.40910351
 H     18  17  14     2.111106447697   109.45836474    58.75680660
 O     14  12  11     2.334428305474   116.31484369   181.29480462
 N      3   2   1     2.203761168253   172.85627054   179.96672373
 N     13  12  11     2.190090584510   179.71393221   180.33462639
 O      1   2   3     2.279728689395   118.62738888   179.40988402
 O      1   2   3     2.653997942215   131.71310394   359.66463348
 C     26   1   2     2.749987919293   123.73925633   179.96808151
 H     27  26   1     2.137587128964   118.27989918     0.19206407
 H     27  26   1     2.092327955216   113.81307512   238.70111026
 H     27  26   1     2.091703497767   113.74748486   121.64674533

---------------------
BASIS SET INFORMATION
---------------------
There are 5 groups of distinct atoms

 Group   1 Type C   : 11s6p2d1f contracted to 5s3p2d1f pattern {62111/411/11/1}
 Group   2 Type F   : 11s6p2d1f contracted to 5s3p2d1f pattern {62111/411/11/1}
 Group   3 Type O   : 11s6p2d1f contracted to 5s3p2d1f pattern {62111/411/11/1}
 Group   4 Type H   : 5s1p contracted to 3s1p pattern {311/1}
 Group   5 Type N   : 11s6p2d1f contracted to 5s3p2d1f pattern {62111/411/11/1}

Atom   0C    basis set group =>   1
Atom   1C    basis set group =>   1
Atom   2C    basis set group =>   1
Atom   3C    basis set group =>   1
Atom   4C    basis set group =>   1
Atom   5C    basis set group =>   1
Atom   6F    basis set group =>   2
Atom   7F    basis set group =>   2
Atom   8C    basis set group =>   1
Atom   9C    basis set group =>   1
Atom  10C    basis set group =>   1
Atom  11C    basis set group =>   1
Atom  12C    basis set group =>   1
Atom  13C    basis set group =>   1
Atom  14F    basis set group =>   2
Atom  15F    basis set group =>   2
Atom  16O    basis set group =>   3
Atom  17C    basis set group =>   1
Atom  18H    basis set group =>   4
Atom  19H    basis set group =>   4
Atom  20H    basis set group =>   4
Atom  21O    basis set group =>   3
Atom  22N    basis set group =>   5
Atom  23N    basis set group =>   5
Atom  24O    basis set group =>   3
Atom  25O    basis set group =>   3
Atom  26C    basis set group =>   1
Atom  27H    basis set group =>   4
Atom  28H    basis set group =>   4
Atom  29H    basis set group =>   4
---------------------------------
AUXILIARY/J BASIS SET INFORMATION
---------------------------------
There are 5 groups of distinct atoms

 Group   1 Type C   : 12s5p4d2f1g contracted to 6s4p3d1f1g pattern {711111/2111/211/2/1}
 Group   2 Type F   : 12s5p4d2f1g contracted to 6s4p3d1f1g pattern {711111/2111/211/2/1}
 Group   3 Type O   : 12s5p4d2f1g contracted to 6s4p3d1f1g pattern {711111/2111/211/2/1}
 Group   4 Type H   : 5s2p1d contracted to 3s1p1d pattern {311/2/1}
 Group   5 Type N   : 12s5p4d2f1g contracted to 6s4p3d1f1g pattern {711111/2111/211/2/1}

Atom   0C    basis set group =>   1
Atom   1C    basis set group =>   1
Atom   2C    basis set group =>   1
Atom   3C    basis set group =>   1
Atom   4C    basis set group =>   1
Atom   5C    basis set group =>   1
Atom   6F    basis set group =>   2
Atom   7F    basis set group =>   2
Atom   8C    basis set group =>   1
Atom   9C    basis set group =>   1
Atom  10C    basis set group =>   1
Atom  11C    basis set group =>   1
Atom  12C    basis set group =>   1
Atom  13C    basis set group =>   1
Atom  14F    basis set group =>   2
Atom  15F    basis set group =>   2
Atom  16O    basis set group =>   3
Atom  17C    basis set group =>   1
Atom  18H    basis set group =>   4
Atom  19H    basis set group =>   4
Atom  20H    basis set group =>   4
Atom  21O    basis set group =>   3
Atom  22N    basis set group =>   5
Atom  23N    basis set group =>   5
Atom  24O    basis set group =>   3
Atom  25O    basis set group =>   3
Atom  26C    basis set group =>   1
Atom  27H    basis set group =>   4
Atom  28H    basis set group =>   4
Atom  29H    basis set group =>   4
--------------------------------------------------------------------------
[[58848,1],2]: A high-performance Open MPI point-to-point messaging module
was unable to find any relevant network interfaces:

Module: OpenFabrics (openib)
  Host: compute-1-4

Another transport will be used instead, although this may result in
lower performance.

NOTE: You can disable this warning by setting the MCA parameter
btl_base_warn_component_unused to 0.
--------------------------------------------------------------------------


           ************************************************************
           *        Program running with 4 parallel MPI-processes     *
           *              working on a common directory               *
           ************************************************************
------------------------------------------------------------------------------
                           ORCA GTO INTEGRAL CALCULATION
------------------------------------------------------------------------------

                         BASIS SET STATISTICS AND STARTUP INFO

 # of primitive gaussian shells          ...  516
 # of primitive gaussian functions       ... 1152
 # of contracted shells                  ...  288
 # of contracted basis functions         ...  780
 Highest angular momentum                ...    3
 Maximum contraction depth               ...    6
 Integral package used                   ... LIBINT
 Integral threshhold            Thresh   ...  2.500e-11
 Primitive cut-off              TCut     ...  2.500e-12


------------------------------ INTEGRAL EVALUATION ----------------------------


 * One electron integrals 
 Pre-screening matrix                    ... done
 Shell pair data                         ... done (   0.012 sec)

[compute-1-4.local:23210] 3 more processes have sent help message help-mpi-btl-base.txt / btl:no-nics
[compute-1-4.local:23210] Set MCA parameter "orte_base_help_aggregate" to 0 to see all help / error messages
--------------------------------------------------------------------------
[[58871,1],2]: A high-performance Open MPI point-to-point messaging module
was unable to find any relevant network interfaces:

Module: OpenFabrics (openib)
  Host: compute-1-4

Another transport will be used instead, although this may result in
lower performance.

NOTE: You can disable this warning by setting the MCA parameter
btl_base_warn_component_unused to 0.
--------------------------------------------------------------------------


           ************************************************************
           *        Program running with 4 parallel MPI-processes     *
           *              working on a common directory               *
           ************************************************************
-------------------------------------------------------------------------------
                                 ORCA SCF
-------------------------------------------------------------------------------

------------
SCF SETTINGS
------------
Hamiltonian:
 Density Functional     Method          .... DFT(GTOs)
 Exchange Functional    Exchange        .... WB97X-D3
 Correlation Functional Correlation     .... WB97X-D3
 Gradients option       PostSCFGGA      .... off
 Hybrid DFT is turned on
   Fraction HF Exchange ScalHFX         ....  0.195728
   Scaling of DF-GGA-X  ScalDFX         ....  0.000000
   Scaling of DF-GGA-C  ScalDFC         ....  1.000000
   Scaling of DF-LDA-C  ScalLDAC        ....  1.000000
   Perturbative correction              ....  0.000000
   Density functional embedding theory  .... OFF
 Long-range corrected/Screened/Range-Separated Hybrid DFT is turned on
   Amount of maximum screened exact exchange              ....  0.804272
   Range separation parameter mu (erf(mu*r12)/r12)        ....  0.250000


General Settings:
 Integral files         IntName         .... F4-DMDCNQ
 Hartree-Fock type      HFTyp           .... RHF
 Total Charge           Charge          ....    0
 Multiplicity           Mult            ....    1
 Number of Electrons    NEL             ....  172
 Basis Dimension        Dim             ....  780
 Nuclear Repulsion      ENuc            ....   1978.8119680443 Eh

Convergence Acceleration:
 DIIS                   CNVDIIS         .... on
   Start iteration      DIISMaxIt       ....    12
   Startup error        DIISStart       ....  0.200000
   # of expansion vecs  DIISMaxEq       ....     5
   Bias factor          DIISBfac        ....   1.050
   Max. coefficient     DIISMaxC        ....  10.000
 Newton-Raphson         CNVNR           .... off
 SOSCF                  CNVSOSCF        .... on
   Start iteration      SOSCFMaxIt      ....   150
   Startup grad/error   SOSCFStart      ....  0.003300
 Level Shifting         CNVShift        .... on
   Level shift para.    LevelShift      ....    0.2500
   Turn off err/grad.   ShiftErr        ....    0.0010
 Zerner damping         CNVZerner       .... off
 Static damping         CNVDamp         .... on
   Fraction old density DampFac         ....    0.7000
   Max. Damping (<1)    DampMax         ....    0.9800
   Min. Damping (>=0)   DampMin         ....    0.0000
   Turn off err/grad.   DampErr         ....    0.1000
 Fernandez-Rico         CNVRico         .... off

SCF Procedure:
 Maximum # iterations   MaxIter         ....   125
 SCF integral mode      SCFMode         .... Direct
   Integral package                     .... LIBINT
 Reset frequency        DirectResetFreq ....    20
 Integral Threshold     Thresh          ....  2.500e-11 Eh
 Primitive CutOff       TCut            ....  2.500e-12 Eh

Convergence Tolerance:
 Convergence Check Mode ConvCheckMode   .... Total+1el-Energy
 Convergence forced     ConvForced      .... 0
 Energy Change          TolE            ....  1.000e-08 Eh
 1-El. energy change                    ....  1.000e-05 Eh
 Orbital Gradient       TolG            ....  1.000e-05
 Orbital Rotation angle TolX            ....  1.000e-05
 DIIS Error             TolErr          ....  5.000e-07


Diagonalization of the overlap matrix:
Smallest eigenvalue                        ... 1.122e-05
Time for diagonalization                   ...    0.292 sec
Threshold for overlap eigenvalues          ... 1.000e-08
Number of eigenvalues below threshold      ... 0
Time for construction of square roots      ...    0.111 sec
Total time needed                          ...    0.405 sec

-------------------
DFT GRID GENERATION
-------------------

General Integration Accuracy     IntAcc      ...  4.340
Radial Grid Type                 RadialGrid  ... Gauss-Chebyshev
Angular Grid (max. acc.)         AngularGrid ... Lebedev-110
Angular grid pruning method      GridPruning ... 3 (G Style)
Weight generation scheme         WeightScheme... Becke
Basis function cutoff            BFCut       ...    1.0000e-11
Integration weight cutoff        WCut        ...    1.0000e-14
Grids for H and He will be reduced by one unit

# of grid points (after initial pruning)     ...  45176 (   0.0 sec)
# of grid points (after weights+screening)   ...  41332 (   0.1 sec)
nearest neighbour list constructed           ...    0.0 sec
Grid point re-assignment to atoms done       ...    0.0 sec
Grid point division into batches done        ...    0.1 sec
Reduced shell lists constructed in    0.4 sec

Total number of grid points                  ...    41332
Total number of batches                      ...      663
Average number of points per batch           ...       62
Average number of grid points per atom       ...     1378
Average number of shells per batch           ...   133.17 (46.24%)
Average number of basis functions per batch  ...   366.09 (46.93%)
Average number of large shells per batch     ...    91.16 (68.46%)
Average number of large basis fcns per batch ...   251.87 (68.80%)
Maximum spatial batch extension              ...   9.02, 16.61, 22.17 au
Average spatial batch extension              ...   0.60,  0.65,  0.97 au

Time for grid setup =    0.538 sec

------------------------------
INITIAL GUESS: MODEL POTENTIAL
------------------------------
Loading Hartree-Fock densities                     ... done
Calculating cut-offs                               ... done
Setting up the integral package                    ... done
Initializing the effective Hamiltonian             ... done
Starting the Coulomb interaction                   ... done (   0.8 sec)
Reading the grid                                   ... done
Mapping shells                                     ... done
Starting the XC term evaluation                    ... done (   0.8 sec)
  promolecular density results
     # of electrons  =    171.993184753
     EX              =   -158.725287560
     EC              =     -5.822950187
     EX+EC           =   -164.548237747
Transforming the Hamiltonian                       ... done (   0.1 sec)
Diagonalizing the Hamiltonian                      ... done (   0.3 sec)
Back transforming the eigenvectors                 ... done (   0.0 sec)
Now organizing SCF variables                       ... done
                      ------------------
                      INITIAL GUESS DONE (   2.7 sec)
                      ------------------

--------------------
CPCM SOLVATION MODEL
--------------------
CPCM parameters:
  Epsilon                                         ...       3.0000
  Refrac                                          ...       1.3300
  Rsolv                                           ...       1.3000
  Surface type                                    ...    GEPOL SES
  Epsilon function type                           ...         CPCM
Radii:
 Radius for C  used is    3.7795 Bohr (=   2.0000 Ang.)
 Radius for F  used is    3.2503 Bohr (=   1.7200 Ang.)
 Radius for O  used is    3.2503 Bohr (=   1.7200 Ang.)
 Radius for H  used is    2.4566 Bohr (=   1.3000 Ang.)
 Radius for N  used is    3.4582 Bohr (=   1.8300 Ang.)
Calculating surface                               ...        done! (  0.1s)
GEPOL surface points                              ...         1144
GEPOL Volume                                      ...    2312.1500
GEPOL Surface-area                                ...    1166.2090
Calculating surface distance matrix               ...        done! (  0.0s)
Performing Cholesky decomposition & store         ...        done! (  0.1s)
Overall time for CPCM initialization              ...                 0.2s
--------------
SCF ITERATIONS
--------------
ITER       Energy         Delta-E        Max-DP      RMS-DP      [F,P]     Damp
               ***  Starting incremental Fock matrix formation  ***
[compute-1-4.local:23229] 3 more processes have sent help message help-mpi-btl-base.txt / btl:no-nics
[compute-1-4.local:23229] Set MCA parameter "orte_base_help_aggregate" to 0 to see all help / error messages
  0  -1346.1716403320   0.000000000000 0.05341569  0.00058531  0.3010788 0.7000
  1  -1346.4245572661  -0.252916934017 0.03229326  0.00043181  0.1363962 0.7000
                               ***Turning on DIIS***
  2  -1346.5248315546  -0.100274288491 0.05017489  0.00079308  0.0463003 0.0000
  3  -1346.7007799655  -0.175948410982 0.03487489  0.00033491  0.0692162 0.0000
  4  -1346.7310535244  -0.030273558834 0.01213583  0.00013224  0.0147189 0.0000
  5  -1346.7329600319  -0.001906507516 0.00610820  0.00006184  0.0041909 0.0000
  6  -1346.7335360999  -0.000576067995 0.00388860  0.00003949  0.0028838 0.0000
  7  -1346.7338503346  -0.000314234680 0.00279601  0.00002918  0.0019671 0.0000
                      *** Initiating the SOSCF procedure ***
                           *** Shutting down DIIS ***
                      *** Re-Reading the Fockian *** 
                      *** Removing any level shift *** 
ITER      Energy       Delta-E        Grad      Rot      Max-DP    RMS-DP
  8  -1346.73401770  -0.0001673675  0.002372  0.002372  0.001245  0.000016
               *** Restarting incremental Fock matrix formation ***
  9  -1346.73409178  -0.0000740824  0.001174  0.005008  0.000953  0.000011
 10  -1346.73413014  -0.0000383513  0.000678  0.008809  0.001806  0.000024
 11  -1346.73414806  -0.0000179289  0.000380  0.000648  0.000586  0.000005
 12  -1346.73415309  -0.0000050296  0.000162  0.000546  0.000211  0.000003
 13  -1346.73415391  -0.0000008111  0.000042  0.000157  0.000099  0.000001
 14  -1346.73415410  -0.0000001948  0.000036  0.000246  0.000058  0.000001
 15  -1346.73415415  -0.0000000469  0.000011  0.000054  0.000024  0.000000
 16  -1346.73415416  -0.0000000121  0.000010  0.000032  0.000012  0.000000
 17  -1346.73415417  -0.0000000071  0.000004  0.000011  0.000007  0.000000
                 **** Energy Check signals convergence ****
              ***Rediagonalizing the Fockian in SOSCF/NRSCF***

               *****************************************************
               *                     SUCCESS                       *
               *           SCF CONVERGED AFTER  18 CYCLES          *
               *****************************************************

Setting up the final grid:

General Integration Accuracy     IntAcc      ...  4.670
Radial Grid Type                 RadialGrid  ... Gauss-Chebyshev
Angular Grid (max. acc.)         AngularGrid ... Lebedev-302
Angular grid pruning method      GridPruning ... 3 (G Style)
Weight generation scheme         WeightScheme... Becke
Basis function cutoff            BFCut       ...    1.0000e-11
Integration weight cutoff        WCut        ...    1.0000e-14
Grids for H and He will be reduced by one unit

# of grid points (after initial pruning)     ... 169692 (   0.0 sec)
# of grid points (after weights+screening)   ... 152588 (   0.5 sec)
nearest neighbour list constructed           ...    0.0 sec
Grid point re-assignment to atoms done       ...    0.0 sec
Grid point division into batches done        ...    0.9 sec
Reduced shell lists constructed in    1.9 sec

Total number of grid points                  ...   152588
Total number of batches                      ...     2402
Average number of points per batch           ...       63
Average number of grid points per atom       ...     5086
Average number of shells per batch           ...   121.26 (42.11%)
Average number of basis functions per batch  ...   330.37 (42.36%)
Average number of large shells per batch     ...    81.88 (67.53%)
Average number of large basis fcns per batch ...   223.97 (67.79%)
Maximum spatial batch extension              ...   9.15, 15.12, 23.20 au
Average spatial batch extension              ...   0.45,  0.46,  0.56 au

Final grid set up in    2.5 sec
Final integration                            ... done (   2.9 sec)
Change in XC energy                          ...     0.002032058
Integrated number of electrons               ...   171.999883069
Previous integrated no of electrons          ...   172.000395244

----------------
TOTAL SCF ENERGY
----------------

Total Energy       :        -1346.73212210 Eh          -36646.44411 eV

Components:
Nuclear Repulsion  :         1978.81196804 Eh           53846.21114 eV
Electronic Energy  :        -3325.54409014 Eh          -90492.65525 eV
One Electron Energy:        -5779.84815306 Eh         -157277.66409 eV
Two Electron Energy:         2454.30406292 Eh           66785.00884 eV
CPCM Dielectric    :           -0.02061854 Eh              -0.56106 eV

Virial components:
Potential Energy   :        -2686.62783260 Eh          -73106.86001 eV
Kinetic Energy     :         1339.89571050 Eh           36460.41589 eV
Virial Ratio       :            2.00510220


DFT components:
N(Alpha)           :       85.999941534565 electrons
N(Beta)            :       85.999941534565 electrons
N(Total)           :      171.999883069130 electrons
E(XC)              :     -117.445307714382 Eh       
DFET-embed. en.    :        0.000000000000 Eh       
CPCM Solvation Model Properties:
Surface-charge          :           -0.03001765
Charge-correction       :            0.00004541 Eh               0.00124 eV
Free-energy (cav+disp)  :            0.00562526 Eh               0.15307 eV
Corrected G(solv)       :        -1346.72645143 Eh          -36646.28980 eV

---------------
SCF CONVERGENCE
---------------

  Last Energy change         ...    8.1736e-09  Tolerance :   1.0000e-08
  Last MAX-Density change    ...    8.3895e-06  Tolerance :   1.0000e-07
  Last RMS-Density change    ...    9.3946e-08  Tolerance :   5.0000e-09
  Last Orbital Gradient      ...    1.2298e-06  Tolerance :   1.0000e-05
  Last Orbital Rotation      ...    8.3016e-06  Tolerance :   1.0000e-05

             **** THE GBW FILE WAS UPDATED (F4-DMDCNQ.gbw) ****
             **** DENSITY FILE WAS UPDATED (F4-DMDCNQ.scfp) ****
             **** ENERGY FILE WAS UPDATED (F4-DMDCNQ.en.tmp) ****
             **** THE GBW FILE WAS UPDATED (F4-DMDCNQ.gbw) ****
             **** DENSITY FILE WAS UPDATED (F4-DMDCNQ.scfp) ****
----------------
ORBITAL ENERGIES
----------------

  NO   OCC          E(Eh)            E(eV) 
   0   2.0000     -24.850126      -676.2063 
   1   2.0000     -24.849723      -676.1953 
   2   2.0000     -24.838029      -675.8771 
   3   2.0000     -24.825940      -675.5482 
   4   2.0000     -19.307548      -525.3851 
   5   2.0000     -19.297140      -525.1019 
   6   2.0000     -19.247744      -523.7577 
   7   2.0000     -19.240047      -523.5483 
   8   2.0000     -14.457175      -393.3997 
   9   2.0000     -14.441453      -392.9719 
  10   2.0000     -10.473413      -284.9961 
  11   2.0000     -10.465852      -284.7903 
  12   2.0000     -10.459122      -284.6072 
  13   2.0000     -10.454883      -284.4918 
  14   2.0000     -10.432569      -283.8846 
  15   2.0000     -10.425604      -283.6951 
  16   2.0000     -10.424386      -283.6620 
  17   2.0000     -10.420192      -283.5478 
  18   2.0000     -10.407825      -283.2113 
  19   2.0000     -10.398962      -282.9701 
  20   2.0000     -10.358960      -281.8816 
  21   2.0000     -10.347730      -281.5760 
  22   2.0000     -10.344724      -281.4943 
  23   2.0000     -10.338984      -281.3381 
  24   2.0000      -1.403949       -38.2034 
  25   2.0000      -1.392646       -37.8958 
  26   2.0000      -1.380106       -37.5546 
  27   2.0000      -1.372706       -37.3532 
  28   2.0000      -1.254094       -34.1256 
  29   2.0000      -1.238051       -33.6891 
  30   2.0000      -1.154521       -31.4161 
  31   2.0000      -1.137995       -30.9664 
  32   2.0000      -1.060600       -28.8604 
  33   2.0000      -1.052581       -28.6422 
  34   2.0000      -1.042356       -28.3639 
  35   2.0000      -0.997956       -27.1558 
  36   2.0000      -0.937014       -25.4974 
  37   2.0000      -0.908233       -24.7143 
  38   2.0000      -0.885401       -24.0930 
  39   2.0000      -0.854653       -23.2563 
  40   2.0000      -0.841586       -22.9007 
  41   2.0000      -0.803028       -21.8515 
  42   2.0000      -0.794483       -21.6190 
  43   2.0000      -0.736680       -20.0461 
  44   2.0000      -0.723321       -19.6826 
  45   2.0000      -0.714275       -19.4364 
  46   2.0000      -0.703824       -19.1520 
  47   2.0000      -0.693140       -18.8613 
  48   2.0000      -0.673828       -18.3358 
  49   2.0000      -0.662865       -18.0375 
  50   2.0000      -0.656589       -17.8667 
  51   2.0000      -0.650294       -17.6954 
  52   2.0000      -0.646776       -17.5997 
  53   2.0000      -0.641027       -17.4432 
  54   2.0000      -0.626472       -17.0472 
  55   2.0000      -0.618405       -16.8276 
  56   2.0000      -0.613307       -16.6889 
  57   2.0000      -0.602763       -16.4020 
  58   2.0000      -0.601153       -16.3582 
  59   2.0000      -0.593215       -16.1422 
  60   2.0000      -0.589359       -16.0373 
  61   2.0000      -0.584441       -15.9034 
  62   2.0000      -0.567099       -15.4315 
  63   2.0000      -0.548806       -14.9338 
[...]
      f+1     :     0.005450
      f-1     :     0.014790
      f+2     :     0.019671
      f-2     :     0.010634
      f+3     :     0.035520
      f-3     :     0.020805
  6 F s       :     3.570255  s :     3.570255
      pz      :     1.801910  p :     5.135793
      px      :     1.591739
      py      :     1.742144
      dz2     :     0.003948  d :     0.033168
      dxz     :     0.007303
      dyz     :     0.002472
      dx2y2   :     0.008364
      dxy     :     0.011081
      f0      :     0.000173  f :     0.001620
      f+1     :     0.000200
      f-1     :     0.000086
      f+2     :     0.000102
      f-2     :     0.000232
      f+3     :     0.000418
      f-3     :     0.000408
  7 F s       :     3.569935  s :     3.569935
      pz      :     1.779581  p :     5.131096
      px      :     1.812533
      py      :     1.538982
      dz2     :     0.004390  d :     0.033520
      dxz     :     0.000638
      dyz     :     0.010095
      dx2y2   :     0.011119
      dxy     :     0.007277
      f0      :     0.000153  f :     0.001647
      f+1     :     0.000012
      f-1     :     0.000314
      f+2     :     0.000336
      f-2     :     0.000084
      f+3     :     0.000376
      f-3     :     0.000371
  8 C s       :     2.704821  s :     2.704821
      pz      :     0.889408  p :     2.693947
      px      :     1.033767
      py      :     0.770772
      dz2     :     0.063055  d :     0.681756
      dxz     :     0.089197
      dyz     :     0.127399
      dx2y2   :     0.195381
      dxy     :     0.206724
      f0      :     0.008753  f :     0.115639
      f+1     :     0.005405
      f-1     :     0.014640
      f+2     :     0.019687
      f-2     :     0.010407
      f+3     :     0.035806
      f-3     :     0.020941
  9 C s       :     2.704966  s :     2.704966
      pz      :     0.908097  p :     2.697178
      px      :     0.854914
      py      :     0.934167
      dz2     :     0.058758  d :     0.677779
      dxz     :     0.138145
      dyz     :     0.075363
      dx2y2   :     0.204892
      dxy     :     0.200621
      f0      :     0.009018  f :     0.114911
      f+1     :     0.012397
      f-1     :     0.007060
      f+2     :     0.008578
      f-2     :     0.019204
      f+3     :     0.036949
      f-3     :     0.021706
 10 C s       :     2.688264  s :     2.688264
      pz      :     0.836647  p :     2.788871
      px      :     0.993832
      py      :     0.958393
      dz2     :     0.044177  d :     0.503749
      dxz     :     0.097480
      dyz     :     0.072981
      dx2y2   :     0.158838
      dxy     :     0.130274
      f0      :     0.004661  f :     0.055794
      f+1     :     0.005161
      f-1     :     0.004832
      f+2     :     0.007459
      f-2     :     0.007284
      f+3     :     0.016621
      f-3     :     0.009775
 11 C s       :     2.705499  s :     2.705499
      pz      :     0.873502  p :     2.836898
      px      :     0.998451
      py      :     0.964946
      dz2     :     0.038191  d :     0.455556
      dxz     :     0.070913
      dyz     :     0.057860
      dx2y2   :     0.151174
      dxy     :     0.137419
      f0      :     0.004576  f :     0.052481
      f+1     :     0.005330
      f-1     :     0.004557
      f+2     :     0.005982
      f-2     :     0.006409
      f+3     :     0.015916
      f-3     :     0.009710
 12 C s       :     2.803719  s :     2.803719
      pz      :     0.879946  p :     2.846941
      px      :     0.845026
      py      :     1.121969
      dz2     :     0.054262  d :     0.430431
      dxz     :     0.016074
      dyz     :     0.125730
      dx2y2   :     0.113724
      dxy     :     0.120642
      f0      :     0.005683  f :     0.062478
      f+1     :     0.000867
      f-1     :     0.011425
      f+2     :     0.011255
      f-2     :     0.004660
      f+3     :     0.014274
      f-3     :     0.014314
 13 C s       :     2.733157  s :     2.733157
      pz      :     0.936036  p :     2.618764
      px      :     0.905430
      py      :     0.777298
      dz2     :     0.293151  d :     0.961332
      dxz     :     0.243318
      dyz     :     0.223026
      dx2y2   :     0.106197
      dxy     :     0.095639
      f0      :     0.039705  f :     0.155633
      f+1     :     0.024634
      f-1     :     0.023696
      f+2     :     0.028048
      f-2     :     0.024874
      f+3     :     0.007684
      f-3     :     0.006993
 14 F s       :     3.569947  s :     3.569947
      pz      :     1.781425  p :     5.131126
      px      :     1.812556
      py      :     1.537145
      dz2     :     0.004355  d :     0.033514
      dxz     :     0.000591
      dyz     :     0.010040
      dx2y2   :     0.011205
      dxy     :     0.007323
      f0      :     0.000155  f :     0.001647
      f+1     :     0.000013
      f-1     :     0.000310
      f+2     :     0.000334
      f-2     :     0.000078
      f+3     :     0.000381
      f-3     :     0.000376
 15 F s       :     3.570257  s :     3.570257
      pz      :     1.801067  p :     5.135769
      px      :     1.591603
      py      :     1.743099
      dz2     :     0.003955  d :     0.033168
      dxz     :     0.007348
      dyz     :     0.002466
      dx2y2   :     0.008358
      dxy     :     0.011041
      f0      :     0.000172  f :     0.001620
      f+1     :     0.000203
      f-1     :     0.000085
      f+2     :     0.000106
      f-2     :     0.000232
      f+3     :     0.000415
      f-3     :     0.000406
 16 O s       :     3.241160  s :     3.241160
      pz      :     1.506732  p :     4.362927
      px      :     1.385904
      py      :     1.470291
      dz2     :     0.024865  d :     0.111797
      dxz     :     0.025646
      dyz     :     0.020635
      dx2y2   :     0.019441
      dxy     :     0.021210
      f0      :     0.001511  f :     0.007037
      f+1     :     0.000982
      f-1     :     0.001106
      f+2     :     0.000757
      f-2     :     0.001080
      f+3     :     0.000867
      f-3     :     0.000734
 17 C s       :     2.863802  s :     2.863802
      pz      :     1.122515  p :     3.015417
      px      :     0.841706
      py      :     1.051196
      dz2     :     0.051240  d :     0.346014
      dxz     :     0.054842
      dyz     :     0.061761
      dx2y2   :     0.081382
      dxy     :     0.096788
      f0      :     0.005955  f :     0.051485
      f+1     :     0.006880
      f-1     :     0.003560
      f+2     :     0.005963
      f-2     :     0.004727
      f+3     :     0.013683
      f-3     :     0.010718
 18 H s       :     0.814723  s :     0.814723
      pz      :     0.015005  p :     0.063146
      px      :     0.023294
      py      :     0.024847
 19 H s       :     0.814906  s :     0.814906
      pz      :     0.035579  p :     0.062366
      px      :     0.009795
      py      :     0.016992
 20 H s       :     0.816354  s :     0.816354
      pz      :     0.027433  p :     0.063148
      px      :     0.008921
      py      :     0.026794
 21 O s       :     3.389796  s :     3.389796
      pz      :     1.494304  p :     4.405498
      px      :     1.520031
      py      :     1.391162
      dz2     :     0.023217  d :     0.067889
      dxz     :     0.023345
      dyz     :     0.012429
      dx2y2   :     0.004906
      dxy     :     0.003992
      f0      :     0.001664  f :     0.006419
      f+1     :     0.002069
      f-1     :     0.000866
      f+2     :     0.000911
      f-2     :     0.000717
      f+3     :     0.000105
      f-3     :     0.000087
 22 N s       :     3.298277  s :     3.298277
      pz      :     1.037208  p :     3.505476
      px      :     1.028836
      py      :     1.439432
      dz2     :     0.013093  d :     0.108024
      dxz     :     0.003281
      dyz     :     0.030707
      dx2y2   :     0.031156
      dxy     :     0.029786
      f0      :     0.001575  f :     0.016543
      f+1     :     0.000256
      f-1     :     0.002918
      f+2     :     0.002853
      f-2     :     0.001124
      f+3     :     0.003896
      f-3     :     0.003921
 23 N s       :     3.298256  s :     3.298256
      pz      :     1.045525  p :     3.505433
      px      :     1.029221
      py      :     1.430687
      dz2     :     0.013504  d :     0.108030
      dxz     :     0.003810
      dyz     :     0.030937
      dx2y2   :     0.030482
      dxy     :     0.029297
      f0      :     0.001544  f :     0.016544
      f+1     :     0.000235
      f-1     :     0.002993
      f+2     :     0.002951
      f-2     :     0.001295
      f+3     :     0.003756
      f-3     :     0.003769
 24 O s       :     3.389721  s :     3.389721
      pz      :     1.534121  p :     4.405568
      px      :     1.518001
      py      :     1.353446
      dz2     :     0.018945  d :     0.067907
      dxz     :     0.020138
      dyz     :     0.014693
      dx2y2   :     0.006399
      dxy     :     0.007731
      f0      :     0.001260  f :     0.006420
      f+1     :     0.001551
      f-1     :     0.001045
      f+2     :     0.000931
      f-2     :     0.001224
      f+3     :     0.000167
      f-3     :     0.000241
 25 O s       :     3.241086  s :     3.241086
      pz      :     1.441588  p :     4.363246
      px      :     1.391920
      py      :     1.529738
      dz2     :     0.035502  d :     0.111790
      dxz     :     0.029862
      dyz     :     0.013753
      dx2y2   :     0.016348
      dxy     :     0.016325
      f0      :     0.001916  f :     0.007043
      f+1     :     0.001625
      f-1     :     0.001053
      f+2     :     0.000523
      f-2     :     0.000478
      f+3     :     0.000841
      f-3     :     0.000607
 26 C s       :     2.863831  s :     2.863831
      pz      :     1.105121  p :     3.016419
      px      :     0.845588
      py      :     1.065710
      dz2     :     0.075222  d :     0.346090
      dxz     :     0.063260
      dyz     :     0.019831
      dx2y2   :     0.101703
      dxy     :     0.086073
      f0      :     0.006289  f :     0.051488
      f+1     :     0.006405
      f-1     :     0.002566
      f+2     :     0.005624
      f-2     :     0.007938
      f+3     :     0.010891
      f-3     :     0.011776
 27 H s       :     0.815360  s :     0.815360
      pz      :     0.015320  p :     0.063002
      px      :     0.008992
      py      :     0.038689
 28 H s       :     0.815381  s :     0.815381
      pz      :     0.020257  p :     0.063124
      px      :     0.024005
      py      :     0.018862
 29 H s       :     0.814929  s :     0.814929
      pz      :     0.039767  p :     0.062315
      px      :     0.009525
      py      :     0.013023


                      *****************************
                      * MAYER POPULATION ANALYSIS *
                      *****************************

  NA   - Mulliken gross atomic population
  ZA   - Total nuclear charge
  QA   - Mulliken gross atomic charge
  VA   - Mayer's total valence
  BVA  - Mayer's bonded valence
  FA   - Mayer's free valence

  ATOM       NA         ZA         QA         VA         BVA        FA
  0 C      5.7068     6.0000     0.2932     4.2955     4.2955    -0.0000
  1 C      5.7103     6.0000     0.2897     3.6881     3.6881    -0.0000
  2 C      6.2123     6.0000    -0.2123     4.0269     4.0269    -0.0000
  3 C      6.1693     6.0000    -0.1693     4.0515     4.0515    -0.0000
  4 C      5.6993     6.0000     0.3007     3.8073     3.8073    -0.0000
  5 C      5.7785     6.0000     0.2215     3.9429     3.9429    -0.0000
  6 F      9.1739     9.0000    -0.1739     1.1316     1.1316    -0.0000
  7 F      9.1668     9.0000    -0.1668     1.1451     1.1451    -0.0000
  8 C      5.7779     6.0000     0.2221     3.9424     3.9424    -0.0000
  9 C      5.6974     6.0000     0.3026     3.8061     3.8061    -0.0000
 10 C      6.1720     6.0000    -0.1720     4.0529     4.0529    -0.0000
 11 C      5.7084     6.0000     0.2916     3.6852     3.6852    -0.0000
 12 C      6.2139     6.0000    -0.2139     4.0280     4.0280    -0.0000
 13 C      5.7077     6.0000     0.2923     4.2929     4.2929    -0.0000
 14 F      9.1668     9.0000    -0.1668     1.1451     1.1451    -0.0000
 15 F      9.1738     9.0000    -0.1738     1.1319     1.1319    -0.0000
 16 O      8.2387     8.0000    -0.2387     2.1481     2.1481    -0.0000
 17 C      6.2355     6.0000    -0.2355     3.8212     3.8212    -0.0000
 18 H      0.8371     1.0000     0.1629     0.9642     0.9642    -0.0000
 19 H      0.8377     1.0000     0.1623     0.9650     0.9650    -0.0000
 20 H      0.8420     1.0000     0.1580     0.9650     0.9650    -0.0000
 21 O      8.3471     8.0000    -0.3471     2.1590     2.1590    -0.0000
 22 N      7.0431     7.0000    -0.0431     3.1001     3.1001    -0.0000
 23 N      7.0431     7.0000    -0.0431     3.0999     3.0999    -0.0000
 24 O      8.3475     8.0000    -0.3475     2.1583     2.1583    -0.0000
 25 O      8.2416     8.0000    -0.2416     2.1471     2.1471    -0.0000
 26 C      6.2359     6.0000    -0.2359     3.8180     3.8180    -0.0000
 27 H      0.8386     1.0000     0.1614     0.9643     0.9643    -0.0000
 28 H      0.8405     1.0000     0.1595     0.9649     0.9649    -0.0000
 29 H      0.8363     1.0000     0.1637     0.9640     0.9640    -0.0000

  Mayer bond orders larger than 0.100000
B(  0-C ,  1-C ) :   0.8893 B(  0-C , 24-O ) :   2.0135 B(  0-C , 25-O ) :   1.2443 
B(  1-C ,  2-C ) :   0.9494 B(  1-C ,  3-C ) :   1.6798 B(  2-C , 22-N ) :   2.9830 
B(  3-C ,  4-C ) :   1.0185 B(  3-C ,  5-C ) :   1.0760 B(  4-C ,  6-F ) :   0.9826 
B(  4-C ,  8-C ) :   1.7577 B(  5-C ,  7-F ) :   1.0189 B(  5-C ,  9-C ) :   1.7572 
B(  8-C , 10-C ) :   1.0758 B(  8-C , 14-F ) :   1.0193 B(  9-C , 10-C ) :   1.0189 
B(  9-C , 15-F ) :   0.9822 B( 10-C , 11-C ) :   1.6784 B( 11-C , 12-C ) :   0.9499 
B( 11-C , 13-C ) :   0.8870 B( 12-C , 23-N ) :   2.9824 B( 13-C , 16-O ) :   1.2446 
B( 13-C , 21-O ) :   2.0130 B( 16-O , 17-C ) :   0.8628 B( 17-C , 18-H ) :   0.9686 
B( 17-C , 19-H ) :   0.9642 B( 17-C , 20-H ) :   0.9688 B( 25-O , 26-C ) :   0.8618 
B( 26-C , 27-H ) :   0.9677 B( 26-C , 28-H ) :   0.9694 B( 26-C , 29-H ) :   0.9634 


-------
TIMINGS
-------

Total SCF time: 0 days 0 hours 21 min 10 sec 

Total time                  ....    1270.232 sec
Sum of individual times     ....    1268.222 sec  ( 99.8%)

Fock matrix formation       ....    1262.227 sec  ( 99.4%)
  XC integration            ....       7.786 sec  (  0.6% of F)
    Basis function eval.    ....       1.602 sec  ( 20.6% of XC)
    Density eval.           ....       2.204 sec  ( 28.3% of XC)
    XC-Functional eval.     ....       0.502 sec  (  6.4% of XC)
    XC-Potential eval.      ....       3.202 sec  ( 41.1% of XC)
Diagonalization             ....       0.447 sec  (  0.0%)
Density matrix formation    ....       0.088 sec  (  0.0%)
Population analysis         ....       0.271 sec  (  0.0%)
Initial guess               ....       0.458 sec  (  0.0%)
Orbital Transformation      ....       0.000 sec  (  0.0%)
Orbital Orthonormalization  ....       0.407 sec  (  0.0%)
DIIS solution               ....       0.120 sec  (  0.0%)
SOSCF solution              ....       1.565 sec  (  0.1%)
Grid generation             ....       3.045 sec  (  0.2%)


-------------------------------------------------------------------------------
                          DFT DISPERSION CORRECTION                            
                                                                               
                              DFTD3 V3.1  Rev 1                                
                              USING zero damping                               
-------------------------------------------------------------------------------
The omegaB97X-D3 functional is recognized. Fit by Chai et al.
Active option DFTDOPT                   ...         3   

molecular C6(AA) [au] = 12704.117183 


            DFT-D V3
 parameters
 s6 scaling factor         :     1.0000 
 rs6 scaling factor        :     1.2810 
 s8 scaling factor         :     1.0000 
 rs8 scaling factor        :     1.0940 
 Damping factor alpha6     :    14.0000 
 Damping factor alpha8     :    16.0000 
 ad hoc parameters k1-k3   :    16.0000     1.3333    -4.0000 

 Edisp/kcal,au: -8.696775970243  -0.013859193211 
 E6   /kcal   :  -3.685627407 
 E8   /kcal   :  -5.011148563 
 % E8         :  57.620761766 

-------------------------   ----------------
Dispersion correction           -0.013859193
-------------------------   ----------------


-------------------------   --------------------
FINAL SINGLE POINT ENERGY     -1346.927267641133
-------------------------   --------------------

                                *** OPTIMIZATION RUN DONE ***

                            ***************************************
                            *     ORCA property calculations      *
                            ***************************************

                                    ---------------------
                                    Active property flags
                                    ---------------------
   (+) Dipole Moment


------------------------------------------------------------------------------
                       ORCA ELECTRIC PROPERTIES CALCULATION
------------------------------------------------------------------------------

Dipole Moment Calculation                       ... on
Quadrupole Moment Calculation                   ... off
Polarizability Calculation                      ... off
GBWName                                         ... F4-DMDCNQ.gbw
Electron density file                           ... F4-DMDCNQ.scfp
The origin for moment calculation is the CENTER OF MASS  = (-2.053698,  7.712485  0.434965)

-------------
DIPOLE MOMENT
-------------
                                X             Y             Z
Electronic contribution:     -0.06825       1.36294       5.18939
Nuclear contribution   :      0.09410      -1.83608      -6.96473
                        -----------------------------------------
Total Dipole Moment    :      0.02584      -0.47314      -1.77535
                        -----------------------------------------
Magnitude (a.u.)       :      1.83749
Magnitude (Debye)      :      4.67053



--------------------
Rotational spectrum 
--------------------
 
Rotational constants in cm-1:     0.015294     0.004752     0.003836 
Rotational constants in MHz :   458.507993   142.458778   115.011974 

 Dipole components along the rotational axes: 
x,y,z [a.u.] :     0.031088     0.024615    -1.837064 
x,y,z [Debye]:     0.079019     0.062566    -4.669447 

 
--------------------------------------------------------------------------
[[51309,1],2]: A high-performance Open MPI point-to-point messaging module
was unable to find any relevant network interfaces:

Module: OpenFabrics (openib)
  Host: compute-1-4

Another transport will be used instead, although this may result in
lower performance.

NOTE: You can disable this warning by setting the MCA parameter
btl_base_warn_component_unused to 0.
--------------------------------------------------------------------------
[compute-1-4.local:30503] 3 more processes have sent help message help-mpi-btl-base.txt / btl:no-nics
[compute-1-4.local:30503] Set MCA parameter "orte_base_help_aggregate" to 0 to see all help / error messages

Timings for individual modules:

Sum of individual times         ...   163436.478 sec (=2723.941 min)
GTO integral calculation        ...       73.712 sec (=   1.229 min)   0.0 %
SCF iterations                  ...   102951.981 sec (=1715.866 min)  63.0 %
SCF Gradient evaluation         ...    60400.524 sec (=1006.675 min)  37.0 %
Geometry relaxation             ...       10.260 sec (=   0.171 min)   0.0 %
                             ****ORCA TERMINATED NORMALLY****
TOTAL RUN TIME: 1 days 21 hours 24 minutes 9 seconds 358 msec
