Warning: no access to tty (Bad file descriptor).
Thus no job control in this shell.

                                 *****************
                                 * O   R   C   A *
                                 *****************

           --- An Ab Initio, DFT and Semiempirical electronic structure package ---

                  #######################################################
                  #                        -***-                        #
                  #          Department of theory and spectroscopy      #
                  #               Directorship: Frank Neese             #
                  #        Max Planck Institute fuer Kohlenforschung    #
                  #                Kaiser Wilhelm Platz 1               #
                  #                 D-45470 Muelheim/Ruhr               #
                  #                      Germany                        #
                  #                                                     #
                  #                  All rights reserved                #
                  #                        -***-                        #
                  #######################################################


                         Program Version 4.2.1 -  RELEASE  -


 With contributions from (in alphabetic order):
   Daniel Aravena         : Magnetic Suceptibility
   Michael Atanasov       : Ab Initio Ligand Field Theory (pilot matlab implementation)
   Alexander A. Auer      : GIAO ZORA, VPT2
   Ute Becker             : Parallelization
   Giovanni Bistoni       : ED, misc. LED, open-shell LED, HFLD
   Martin Brehm           : Molecular dynamics
   Dmytro Bykov           : SCF Hessian
   Vijay G. Chilkuri      : MRCI spin determinant printing, contributions to CSF-ICE
   Dipayan Datta          : RHF DLPNO-CCSD density
   Achintya Kumar Dutta   : EOM-CC, STEOM-CC
   Dmitry Ganyushin       : Spin-Orbit,Spin-Spin,Magnetic field MRCI
   Miquel Garcia          : C-PCM Hessian, Gaussian charge scheme
   Yang Guo               : DLPNO-NEVPT2, CIM, IAO-localization
   Andreas Hansen         : Spin unrestricted coupled pair/coupled cluster methods
   Benjamin Helmich-Paris : CASSCF linear response (MC-RPA)
   Lee Huntington         : MR-EOM, pCC
   Robert Izsak           : Overlap fitted RIJCOSX, COSX-SCS-MP3, EOM
   Christian Kollmar      : KDIIS, OOCD, Brueckner-CCSD(T), CCSD density
   Simone Kossmann        : Meta GGA functionals, TD-DFT gradient, OOMP2, MP2 Hessian
   Martin Krupicka        : AUTO-CI
   Lucas Lang             : DCDCAS
   Dagmar Lenk            : GEPOL surface, SMD
   Dimitrios Liakos       : Extrapolation schemes; Compound Job, initial MDCI parallelization
   Dimitrios Manganas     : Further ROCIS development; embedding schemes
   Dimitrios Pantazis     : SARC Basis sets
   Taras Petrenko         : DFT Hessian,TD-DFT gradient, ASA, ECA, R-Raman, ABS, FL, XAS/XES, NRVS
   Peter Pinski           : DLPNO-MP2, DLPNO-MP2 Gradient
   Christoph Reimann      : Effective Core Potentials
   Marius Retegan         : Local ZFS, SOC
   Christoph Riplinger    : Optimizer, TS searches, QM/MM, DLPNO-CCSD(T), (RO)-DLPNO pert. Triples
   Tobias Risthaus        : Range-separated hybrids, TD-DFT gradient, RPA, STAB
   Michael Roemelt        : Original ROCIS implementation
   Masaaki Saitow         : Open-shell DLPNO-CCSD energy and density
   Barbara Sandhoefer     : DKH picture change effects
   Avijit Sen             : IP-ROCIS
   Kantharuban Sivalingam : CASSCF convergence, NEVPT2, FIC-MRCI
   Bernardo de Souza      : ESD, SOC TD-DFT
   Georgi Stoychev        : AutoAux, RI-MP2 NMR
   Willem Van den Heuvel  : Paramagnetic NMR
   Boris Wezisla          : Elementary symmetry handling
   Frank Wennmohs         : Technical directorship


 We gratefully acknowledge several colleagues who have allowed us to
 interface, adapt or use parts of their codes:
   Stefan Grimme, W. Hujo, H. Kruse,             : VdW corrections, initial TS optimization,
                  C. Bannwarth                     DFT functionals, gCP, sTDA/sTD-DF
   Ed Valeev, F. Pavosevic, A. Kumar             : LibInt (2-el integral package), F12 methods
   Garnet Chan, S. Sharma, J. Yang, R. Olivares  : DMRG
   Ulf Ekstrom                                   : XCFun DFT Library
   Mihaly Kallay                                 : mrcc  (arbitrary order and MRCC methods)
   Andreas Klamt, Michael Diedenhofen            : otool_cosmo (COSMO solvation model)
   Jiri Pittner, Ondrej Demel                    : Mk-CCSD
   Frank Weinhold                                : gennbo (NPA and NBO analysis)
   Christopher J. Cramer and Donald G. Truhlar   : smd solvation model
   Lars Goerigk                                  : TD-DFT with DH, B97 family of functionals
   V. Asgeirsson, H. Jonsson                     : NEB implementation
   FAccTs GmbH                                   : IRC, NEB, NEB-TS, Multilevel, MM, QM/MM, CI optimization
   S Lehtola, MJT Oliveira, MAL Marques          : LibXC Library


 Your calculation uses the libint2 library for the computation of 2-el integrals
 For citations please refer to: http://libint.valeyev.net

 Your ORCA version has been built with support for libXC version: 4.2.3
 For citations please refer to: https://tddft.org/programs/libxc/

 This ORCA versions uses:
   CBLAS   interface :  Fast vector & matrix operations
   LAPACKE interface :  Fast linear algebra routines
   SCALAPACK package :  Parallel linear algebra routines


Your calculation utilizes the atom-pairwise dispersion correction
with the zero-damping scheme (D30)
Cite in your paper:
S.Grimme, J.Antony, S.Ehrlich and H.Krieg, J.Chem.Phys., 132, (2010), 154104 
   

XCFun DFT library Copyright 2009-2010 Ulf Ekstrom and contributors.
See http://admol.org/xcfun for more information. This is free soft-
ware; see the source code for copying conditions. There is ABSOLUTELY
NO WARRANTY; not even for MERCHANTABILITY or FITNESS FOR A PARTICULAR
PURPOSE. For details see the documentation. Scientific users of this 
library should cite U. Ekstrom, L. Visscher, R. Bast, A. J. Thorvald-
sen and K. Ruud; J.Chem.Theor.Comp. 2010, DOI: 10.1021/ct100117s
XCFun Version 0.99 
----- Orbital basis set information -----
Your calculation utilizes the basis: def2-TZVP
   F. Weigend and R. Ahlrichs, Phys. Chem. Chem. Phys. 7, 3297 (2005).

----- AuxJ basis set information -----
Your calculation utilizes the auxiliary basis: def2/J
   F. Weigend, Phys. Chem. Chem. Phys. 8, 1057 (2006).

================================================================================
                                        WARNINGS
                       Please study these warnings very carefully!
================================================================================


WARNING: Geometry Optimization
  ===> : Switching off AutoStart
         For restart on a previous wavefunction, please use MOREAD

INFO   : the flag for use of LIBINT has been found!

================================================================================
                                       INPUT FILE
================================================================================
NAME = tdae.inp
|  1> # avogadro generated ORCA input file 
|  2> # Basic Mode
|  3> # 
|  4> ! wB97X-D3 OPT def2-TZVP def2/J CPCM
|  5> %cpcm
|  6>   epsilon 3
|  7> end
|  8> %pal
|  9>  nprocs 4
| 10> end
| 11> 
| 12> * xyz 0 1
| 13>    C       -1.23949        1.88274        0.00064
| 14>    C        0.14689        1.88590       -0.00064
| 15>    N       -1.99717        3.10127        0.17814
| 16>    N       -1.99143        0.66049       -0.17552
| 17>    N        0.89909        3.11726       -0.09208
| 18>    N        0.90431        0.65768        0.08947
| 19>    C       -1.63184        4.09956        1.17153
| 20>    H       -0.71264        3.82281        1.72675
| 21>    H       -2.44656        4.18522        1.92133
| 22>    H       -1.50677        5.09326        0.69686
| 23>    C       -3.23616        3.31848       -0.55005
| 24>    H       -3.43458        2.50649       -1.28039
| 25>    H       -3.16661        4.26699       -1.12327
| 26>    H       -4.08975        3.38717        0.15719
| 27>    C        0.52907        4.18122       -1.01292
| 28>    H       -0.38901        3.94006       -1.58629
| 29>    H        1.34322        4.32298       -1.75479
| 30>    H        0.39969        5.13855       -0.46962
| 31>    C        2.13729        3.28832        0.64963
| 32>    H        2.33951        2.42795        1.32116
| 33>    H        2.06366        4.19391        1.28804
| 34>    H        2.99038        3.41031       -0.05099
| 35>    C        2.14097        0.49101       -0.65575
| 36>    H        2.33778        1.35180       -1.32837
| 37>    H        2.06901       -0.41528       -1.29336
| 38>    H        2.99660        0.37281        0.04242
| 39>    C        0.54106       -0.40697        1.01222
| 40>    H       -0.37636       -0.16888        1.58795
| 41>    H        1.35784       -0.54489        1.75192
| 42>    H        0.41384       -1.36527        0.47016
| 43>    C       -1.62350       -0.33526       -1.17052
| 44>    H       -0.70720       -0.05333       -1.72795
| 45>    H       -2.43972       -0.42465       -1.91826
| 46>    H       -1.49196       -1.32861       -0.69691
| 47>    C       -3.22730        0.43649        0.55586
| 48>    H       -3.42791        1.24713        1.28712
| 49>    H       -3.15126       -0.51193        1.12840
| 50>    H       -4.08243        0.36371       -0.14910
| 51> *
| 52> 
| 53> 
| 54>                          ****END OF INPUT****
================================================================================

                       *****************************
                       * Geometry Optimization Run *
                       *****************************

Geometry optimization settings:
Update method            Update   .... BFGS
Choice of coordinates    CoordSys .... Z-matrix Internals
Initial Hessian          InHess   .... Almoef's Model

Convergence Tolerances:
Energy Change            TolE     ....  5.0000e-06 Eh
Max. Gradient            TolMAXG  ....  3.0000e-04 Eh/bohr
RMS Gradient             TolRMSG  ....  1.0000e-04 Eh/bohr
Max. Displacement        TolMAXD  ....  4.0000e-03 bohr
RMS Displacement         TolRMSD  ....  2.0000e-03 bohr
Strict Convergence                ....  False
------------------------------------------------------------------------------
                        ORCA OPTIMIZATION COORDINATE SETUP
------------------------------------------------------------------------------

The optimization will be done in new redundant internal coordinates
Making redundant internal coordinates   ...  (new redundants) done
Evaluating the initial hessian          ...  (Almloef) done
Evaluating the coordinates              ...  done
Calculating the B-matrix                .... done
Calculating the G-matrix                .... done
Diagonalizing the G-matrix              .... done
Small eigenvalue found = 5.228e-03
Small eigenvalue found = 8.501e-03
Small eigenvalue found = 1.504e-02
Small eigenvalue found = 1.805e-02
Small eigenvalue found = 2.223e-02
The first mode is                       ....   63
The number of degrees of freedom        ....  108

    -----------------------------------------------------------------
                    Redundant Internal Coordinates


    -----------------------------------------------------------------
         Definition                    Initial Value    Approx d2E/dq
    -----------------------------------------------------------------
      1. B(C   1,C   0)                  1.3864         0.633151   
      2. B(N   2,C   0)                  1.4458         0.455843   
      3. B(N   3,C   0)                  1.4458         0.455878   
      4. B(N   4,C   1)                  1.4458         0.455836   
      5. B(N   5,C   1)                  1.4458         0.455884   
      6. B(C   6,N   2)                  1.4549         0.440814   
      7. B(H   7,C   6)                  1.1090         0.335874   
      8. B(H   8,C   6)                  1.1105         0.333924   
      9. B(H   9,C   6)                  1.1083         0.336651   
     10. B(C  10,N   2)                  1.4535         0.443235   
     11. B(H  11,C  10)                  1.1100         0.334594   
     12. B(H  12,C  10)                  1.1104         0.334044   
     13. B(H  13,C  10)                  1.1106         0.333805   
     14. B(C  14,N   4)                  1.4549         0.440815   
     15. B(H  15,C  14)                  1.1090         0.335877   
     16. B(H  16,C  14)                  1.1105         0.333924   
     17. B(H  17,C  14)                  1.1083         0.336650   
     18. B(C  18,N   4)                  1.4535         0.443236   
     19. B(H  19,C  18)                  1.1100         0.334601   
     20. B(H  20,C  18)                  1.1104         0.334048   
     21. B(H  21,C  18)                  1.1106         0.333810   
     22. B(C  22,N   5)                  1.4534         0.443278   
     23. B(H  23,C  22)                  1.1100         0.334585   
     24. B(H  24,C  22)                  1.1104         0.334046   
     25. B(H  25,C  22)                  1.1106         0.333809   
     26. B(C  26,N   5)                  1.4550         0.440800   
     27. B(H  27,C  26)                  1.1090         0.335861   
     28. B(H  28,C  26)                  1.1105         0.333923   
     29. B(H  29,C  26)                  1.1083         0.336674   
     30. B(C  30,N   3)                  1.4550         0.440790   
     31. B(H  31,C  30)                  1.1090         0.335857   
     32. B(H  32,C  30)                  1.1105         0.333916   
     33. B(H  33,C  30)                  1.1083         0.336674   
     34. B(C  34,N   3)                  1.4534         0.443274   
     35. B(H  35,C  34)                  1.1100         0.334579   
     36. B(H  36,C  34)                  1.1104         0.334046   
     37. B(H  37,C  34)                  1.1106         0.333810   
     38. A(C   1,C   0,N   2)          121.4825         0.409733   
     39. A(C   1,C   0,N   3)          121.4597         0.409739   
     40. A(N   2,C   0,N   3)          117.0578         0.384302   
     41. A(C   0,C   1,N   5)          121.4586         0.409740   
     42. A(C   0,C   1,N   4)          121.4836         0.409732   
     43. A(N   4,C   1,N   5)          117.0579         0.384302   
     44. A(C   0,N   2,C   6)          122.0397         0.382065   
     45. A(C   0,N   2,C  10)          120.7414         0.382428   
     46. A(C   6,N   2,C  10)          116.9733         0.380210   
     47. A(C   0,N   3,C  34)          120.7445         0.382439   
     48. A(C   0,N   3,C  30)          122.0303         0.382066   
     49. A(C  30,N   3,C  34)          116.9799         0.380212   
     50. A(C  14,N   4,C  18)          116.9726         0.380210   
     51. A(C   1,N   4,C  18)          120.7416         0.382427   
     52. A(C   1,N   4,C  14)          122.0402         0.382064   
     53. A(C  22,N   5,C  26)          116.9811         0.380214   
     54. A(C   1,N   5,C  26)          122.0295         0.382069   
     55. A(C   1,N   5,C  22)          120.7441         0.382441   
     56. A(N   2,C   6,H   7)          112.2555         0.327501   
     57. A(H   8,C   6,H   9)          107.6251         0.284420   
     58. A(H   7,C   6,H   9)          110.1595         0.284678   
     59. A(N   2,C   6,H   9)          110.5542         0.327626   
     60. A(N   2,C   6,H   8)          109.2503         0.327187   
     61. A(H   7,C   6,H   8)          106.8164         0.284318   
     62. A(H  12,C  10,H  13)          108.9063         0.284061   
     63. A(H  11,C  10,H  13)          109.0771         0.284133   
     64. A(N   2,C  10,H  13)          110.2038         0.327463   
     65. A(H  11,C  10,H  12)          107.2413         0.284165   
     66. A(N   2,C  10,H  12)          109.4438         0.327502   
     67. A(N   2,C  10,H  11)          111.8824         0.327591   
     68. A(H  16,C  14,H  17)          107.6249         0.284420   
     69. A(H  15,C  14,H  17)          110.1602         0.284678   
     70. A(N   4,C  14,H  17)          110.5535         0.327626   
     71. A(H  15,C  14,H  16)          106.8156         0.284318   
     72. A(N   4,C  14,H  16)          109.2504         0.327187   
     73. A(N   4,C  14,H  15)          112.2564         0.327502   
     74. A(N   4,C  18,H  19)          111.8826         0.327592   
     75. A(H  20,C  18,H  21)          108.9067         0.284062   
     76. A(H  19,C  18,H  21)          109.0773         0.284135   
     77. A(N   4,C  18,H  21)          110.2040         0.327465   
     78. A(H  19,C  18,H  20)          107.2407         0.284166   
     79. A(N   4,C  18,H  20)          109.4435         0.327503   
     80. A(H  24,C  22,H  25)          108.9059         0.284061   
     81. A(H  23,C  22,H  25)          109.0780         0.284133   
     82. A(N   5,C  22,H  25)          110.2054         0.327469   
     83. A(H  23,C  22,H  24)          107.2452         0.284164   
     84. A(N   5,C  22,H  24)          109.4425         0.327508   
     85. A(N   5,C  22,H  23)          111.8779         0.327595   
     86. A(H  28,C  26,H  29)          107.6263         0.284423   
     87. A(H  27,C  26,H  29)          110.1567         0.284679   
     88. A(N   5,C  26,H  29)          110.5590         0.327628   
     89. A(H  27,C  26,H  28)          106.8166         0.284316   
     90. A(N   5,C  26,H  28)          109.2495         0.327186   
     91. A(N   5,C  26,H  27)          112.2529         0.327498   
     92. A(H  32,C  30,H  33)          107.6264         0.284422   
     93. A(H  31,C  30,H  33)          110.1567         0.284678   
     94. A(N   3,C  30,H  33)          110.5591         0.327627   
     95. A(H  31,C  30,H  32)          106.8160         0.284315   
     96. A(N   3,C  30,H  32)          109.2494         0.327183   
     97. A(N   3,C  30,H  31)          112.2535         0.327496   
     98. A(H  35,C  34,H  36)          107.2445         0.284163   
     99. A(N   3,C  34,H  36)          109.4422         0.327507   
    100. A(N   3,C  34,H  35)          111.8779         0.327593   
    101. A(H  36,C  34,H  37)          108.9063         0.284062   
    102. A(H  35,C  34,H  37)          109.0784         0.284132   
    103. A(N   3,C  34,H  37)          110.2055         0.327469   
    104. D(N   5,C   1,C   0,N   2)    167.5333         0.027813   
    105. D(N   5,C   1,C   0,N   3)    -12.4673         0.027813   
    106. D(N   4,C   1,C   0,N   2)    -12.4648         0.027813   
    107. D(N   4,C   1,C   0,N   3)    167.5346         0.027813   
    108. D(C  10,N   2,C   0,C   1)    142.9111         0.016367   
    109. D(C  10,N   2,C   0,N   3)    -37.0883         0.016367   
    110. D(C   6,N   2,C   0,N   3)    137.0449         0.016367   
    111. D(C   6,N   2,C   0,C   1)    -42.9556         0.016367   
    112. D(C  30,N   3,C   0,N   2)    136.9840         0.016370   
    113. D(C  34,N   3,C   0,C   1)    142.8479         0.016370   
    114. D(C  34,N   3,C   0,N   2)    -37.1526         0.016370   
    115. D(C  30,N   3,C   0,C   1)    -43.0154         0.016370   
    116. D(C  18,N   4,C   1,C   0)    142.9183         0.016367   
    117. D(C  14,N   4,C   1,C   0)    -42.9486         0.016367   
    118. D(C  14,N   4,C   1,N   5)    137.0532         0.016367   
    119. D(C  18,N   4,C   1,N   5)    -37.0798         0.016367   
    120. D(C  26,N   5,C   1,N   4)    136.9759         0.016370   
    121. D(C  22,N   5,C   1,N   4)    -37.1612         0.016370   
    122. D(C  22,N   5,C   1,C   0)    142.8406         0.016370   
    123. D(C  26,N   5,C   1,C   0)    -43.0223         0.016370   
    124. D(H   9,C   6,N   2,C  10)    -60.4456         0.016570   
    125. D(H   9,C   6,N   2,C   0)    125.2116         0.016570   
    126. D(H   8,C   6,N   2,C  10)     57.8142         0.016570   
    127. D(H   8,C   6,N   2,C   0)   -116.5287         0.016570   
    128. D(H   7,C   6,N   2,C  10)    176.1094         0.016570   
    129. D(H   7,C   6,N   2,C   0)      1.7665         0.016570   
    130. D(H  12,C  10,N   2,C   6)     61.5511         0.016754   
    131. D(H  12,C  10,N   2,C   0)   -124.0281         0.016754   
    132. D(H  11,C  10,N   2,C   6)   -179.7300         0.016754   
    133. D(H  13,C  10,N   2,C   0)    116.2323         0.016754   
    134. D(H  11,C  10,N   2,C   0)     -5.3092         0.016754   
    135. D(H  13,C  10,N   2,C   6)    -58.1885         0.016754   
    136. D(H  17,C  14,N   4,C  18)    -60.4465         0.016570   
    137. D(H  17,C  14,N   4,C   1)    125.2108         0.016570   
    138. D(H  16,C  14,N   4,C  18)     57.8127         0.016570   
    139. D(H  16,C  14,N   4,C   1)   -116.5301         0.016570   
    140. D(H  15,C  14,N   4,C  18)    176.1075         0.016570   
    141. D(H  15,C  14,N   4,C   1)      1.7648         0.016570   
    142. D(H  21,C  18,N   4,C  14)    -58.1891         0.016754   
    143. D(H  21,C  18,N   4,C   1)    116.2316         0.016754   
    144. D(H  20,C  18,N   4,C  14)     61.5509         0.016754   
    145. D(H  20,C  18,N   4,C   1)   -124.0284         0.016754   
    146. D(H  19,C  18,N   4,C  14)   -179.7310         0.016754   
    147. D(H  19,C  18,N   4,C   1)     -5.3103         0.016754   
    148. D(H  25,C  22,N   5,C  26)    -58.1827         0.016757   
    149. D(H  25,C  22,N   5,C   1)    116.2407         0.016757   
    150. D(H  24,C  22,N   5,C  26)     61.5565         0.016757   
    151. D(H  24,C  22,N   5,C   1)   -124.0201         0.016757   
    152. D(H  23,C  22,N   5,C  26)   -179.7234         0.016757   
    153. D(H  23,C  22,N   5,C   1)     -5.3000         0.016757   
    154. D(H  29,C  26,N   5,C  22)    -60.4445         0.016569   
    155. D(H  29,C  26,N   5,C   1)    125.2092         0.016569   
    156. D(H  28,C  26,N   5,C  22)     57.8192         0.016569   
    157. D(H  28,C  26,N   5,C   1)   -116.5271         0.016569   
    158. D(H  27,C  26,N   5,C  22)    176.1125         0.016569   
    159. D(H  27,C  26,N   5,C   1)      1.7662         0.016569   
    160. D(H  33,C  30,N   3,C  34)    -60.4460         0.016568   
    161. D(H  33,C  30,N   3,C   0)    125.2080         0.016568   
    162. D(H  32,C  30,N   3,C  34)     57.8176         0.016568   
    163. D(H  32,C  30,N   3,C   0)   -116.5284         0.016568   
    164. D(H  31,C  30,N   3,C  34)    176.1105         0.016568   
    165. D(H  31,C  30,N   3,C   0)      1.7645         0.016568   
    166. D(H  35,C  34,N   3,C   0)     -5.3013         0.016757   
    167. D(H  37,C  34,N   3,C  30)    -58.1832         0.016757   
    168. D(H  37,C  34,N   3,C   0)    116.2399         0.016757   
    169. D(H  36,C  34,N   3,C  30)     61.5565         0.016757   
    170. D(H  36,C  34,N   3,C   0)   -124.0204         0.016757   
    171. D(H  35,C  34,N   3,C  30)   -179.7244         0.016757   
    -----------------------------------------------------------------

Number of atoms                         .... 38
Number of degrees of freedom            .... 171

         *************************************************************
         *                GEOMETRY OPTIMIZATION CYCLE   1            *
         *************************************************************
---------------------------------
CARTESIAN COORDINATES (ANGSTROEM)
---------------------------------
  C     -1.239490    1.882740    0.000640
  C      0.146890    1.885900   -0.000640
  N     -1.997170    3.101270    0.178140
  N     -1.991430    0.660490   -0.175520
  N      0.899090    3.117260   -0.092080
  N      0.904310    0.657680    0.089470
  C     -1.631840    4.099560    1.171530
  H     -0.712640    3.822810    1.726750
  H     -2.446560    4.185220    1.921330
  H     -1.506770    5.093260    0.696860
  C     -3.236160    3.318480   -0.550050
  H     -3.434580    2.506490   -1.280390
  H     -3.166610    4.266990   -1.123270
  H     -4.089750    3.387170    0.157190
  C      0.529070    4.181220   -1.012920
  H     -0.389010    3.940060   -1.586290
  H      1.343220    4.322980   -1.754790
  H      0.399690    5.138550   -0.469620
  C      2.137290    3.288320    0.649630
  H      2.339510    2.427950    1.321160
  H      2.063660    4.193910    1.288040
  H      2.990380    3.410310   -0.050990
  C      2.140970    0.491010   -0.655750
  H      2.337780    1.351800   -1.328370
  H      2.069010   -0.415280   -1.293360
  H      2.996600    0.372810    0.042420
  C      0.541060   -0.406970    1.012220
  H     -0.376360   -0.168880    1.587950
  H      1.357840   -0.544890    1.751920
  H      0.413840   -1.365270    0.470160
  C     -1.623500   -0.335260   -1.170520
  H     -0.707200   -0.053330   -1.727950
  H     -2.439720   -0.424650   -1.918260
  H     -1.491960   -1.328610   -0.696910
  C     -3.227300    0.436490    0.555860
  H     -3.427910    1.247130    1.287120
  H     -3.151260   -0.511930    1.128400
  H     -4.082430    0.363710   -0.149100

----------------------------
CARTESIAN COORDINATES (A.U.)
----------------------------
  NO LB      ZA    FRAG     MASS         X           Y           Z
   0 C     6.0000    0    12.011   -2.342297    3.557863    0.001209
   1 C     6.0000    0    12.011    0.277582    3.563835   -0.001209
   2 N     7.0000    0    14.007   -3.774104    5.860551    0.336636
   3 N     7.0000    0    14.007   -3.763257    1.248145   -0.331685
   4 N     7.0000    0    14.007    1.699034    5.890768   -0.174006
   5 N     7.0000    0    14.007    1.708898    1.242835    0.169074
   6 C     6.0000    0    12.011   -3.083731    7.747046    2.213871
   7 H     1.0000    0     1.008   -1.346694    7.224064    3.263085
   8 H     1.0000    0     1.008   -4.623328    7.908920    3.630788
   9 H     1.0000    0     1.008   -2.847383    9.624867    1.316875
  10 C     6.0000    0    12.011   -6.115456    6.271018   -1.039444
  11 H     1.0000    0     1.008   -6.490416    4.736580   -2.419586
  12 H     1.0000    0     1.008   -5.984026    8.063443   -2.122673
  13 H     1.0000    0     1.008   -7.728507    6.400824    0.297046
  14 C     6.0000    0    12.011    0.999797    7.901361   -1.914141
  15 H     1.0000    0     1.008   -0.735122    7.445634   -2.997654
  16 H     1.0000    0     1.008    2.538318    8.169248   -3.316073
  17 H     1.0000    0     1.008    0.755305    9.710452   -0.887453
  18 C     6.0000    0    12.011    4.038893    6.214024    1.227623
  19 H     1.0000    0     1.008    4.421033    4.588161    2.496631
  20 H     1.0000    0     1.008    3.899752    7.925341    2.434043
  21 H     1.0000    0     1.008    5.650999    6.444552   -0.096357
  22 C     6.0000    0    12.011    4.045847    0.927874   -1.239188
  23 H     1.0000    0     1.008    4.417764    2.554532   -2.510256
  24 H     1.0000    0     1.008    3.909862   -0.784765   -2.444096
  25 H     1.0000    0     1.008    5.662753    0.704509    0.080162
  26 C     6.0000    0    12.011    1.022455   -0.769062    1.912819
  27 H     1.0000    0     1.008   -0.711217   -0.319137    3.000791
  28 H     1.0000    0     1.008    2.565946   -1.029693    3.310649
  29 H     1.0000    0     1.008    0.782044   -2.579986    0.888474
  30 C     6.0000    0    12.011   -3.067970   -0.633550   -2.211962
  31 H     1.0000    0     1.008   -1.336414   -0.100779   -3.265352
  32 H     1.0000    0     1.008   -4.610403   -0.802472   -3.624986
  33 H     1.0000    0     1.008   -2.819396   -2.510709   -1.316969
  34 C     6.0000    0    12.011   -6.098713    0.824847    1.050423
  35 H     1.0000    0     1.008   -6.477811    2.356734    2.432304
  36 H     1.0000    0     1.008   -5.955018   -0.967407    2.132367
  37 H     1.0000    0     1.008   -7.714675    0.687312   -0.281758

--------------------------------
INTERNAL COORDINATES (ANGSTROEM)
--------------------------------
 C      0   0   0     0.000000000000     0.00000000     0.00000000
 C      1   0   0     1.386384192206     0.00000000     0.00000000
 N      1   2   0     1.445821770932   121.48254378     0.00000000
 N      1   2   3     1.445801221365   121.45966145   179.99938639
 N      2   1   3     1.445826256229   121.48357901   347.53520980
 N      2   1   3     1.445797093959   121.45855587   167.53328345
 C      3   1   2     1.454947636549   122.03965125   317.04435976
 H      7   3   1     1.108958272840   112.25552639     1.76651379
 H      7   3   1     1.110543269756   109.25027700   243.47129259
 H      7   3   1     1.108329284915   110.55423026   125.21157044
 C      3   1   2     1.453456941330   120.74141980   142.91109944
 H     11   3   1     1.109997645088   111.88241487   354.69075858
 H     11   3   1     1.110445672242   109.44381852   235.97186271
 H     11   3   1     1.110640635759   110.20380402   116.23225047
 C      5   2   1     1.454947417469   122.04020561   317.05138080
 H     15   5   2     1.108955449466   112.25638864     1.76476808
 H     15   5   2     1.110543658304   109.25038838   243.46994720
 H     15   5   2     1.108329735819   110.55352189   125.21075607
 C      5   2   1     1.453456049456   120.74156973   142.91830948
 H     19   5   2     1.109991894655   111.88255187   354.68967002
 H     19   5   2     1.110442233122   109.44349700   235.97161109
 H     19   5   2     1.110636075679   110.20398877   116.23162409
 C      6   2   1     1.453430319245   120.74407065   142.84062307
 H     23   6   2     1.110005074133   111.87788810   354.70001239
 H     23   6   2     1.110444198418   109.44247844   235.97987893
 H     23   6   2     1.110637333156   110.20535010   116.24067104
 C      6   2   1     1.454956269961   122.02947353   316.97770267
 H     27   6   2     1.108968591710   112.25288925     1.76621510
 H     27   6   2     1.110543823899   109.24953539   243.47288503
 H     27   6   2     1.108310814709   110.55904223   125.20921129
 C      4   1   2     1.454962386937   122.03027247   316.98459331
 H     31   4   1     1.108971784943   112.25349658     1.76451641
 H     31   4   1     1.110549759398   109.24935185   243.47164075
 H     31   4   1     1.108311069240   110.55905813   125.20799307
 C      4   1   2     1.453432957277   120.74446721   142.84794268
 H     35   4   1     1.110010256394   111.87790723   354.69870758
 H     35   4   1     1.110443438271   109.44222237   235.97958071
 H     35   4   1     1.110636235182   110.20552351   116.23989917

---------------------------
INTERNAL COORDINATES (A.U.)
---------------------------
 C      0   0   0     0.000000000000     0.00000000     0.00000000
 C      1   0   0     2.619886439668     0.00000000     0.00000000
 N      1   2   0     2.732207185522   121.48254378     0.00000000
 N      1   2   3     2.732168352468   121.45966145   179.99938639
 N      2   1   3     2.732215661505   121.48357901   347.53520980
 N      2   1   3     2.732160552802   121.45855587   167.53328345
 C      3   1   2     2.749452572274   122.03965125   317.04435976
 H      7   3   1     2.095627429614   112.25552639     1.76651379
 H      7   3   1     2.098622639708   109.25027700   243.47129259
 H      7   3   1     2.094438814694   110.55423026   125.21157044
 C      3   1   2     2.746635566560   120.74141980   142.91109944
 H     11   3   1     2.097591558513   111.88241487   354.69075858
 H     11   3   1     2.098438207135   109.44381852   235.97186271
 H     11   3   1     2.098806634789   110.20380402   116.23225047
 C      5   2   1     2.749452158273   122.04020561   317.05138080
 H     15   5   2     2.095622094210   112.25638864     1.76476808
 H     15   5   2     2.098623373958   109.25038838   243.46994720
 H     15   5   2     2.094439666779   110.55352189   125.21075607
 C      5   2   1     2.746633881163   120.74156973   142.91830948
 H     19   5   2     2.097580691770   111.88255187   354.68967002
 H     19   5   2     2.098431708140   109.44349700   235.97161109
 H     19   5   2     2.098798017487   110.20398877   116.23162409
 C      6   2   1     2.746585258110   120.74407065   142.84062307
 H     23   6   2     2.097605597373   111.87788810   354.70001239
 H     23   6   2     2.098435422012   109.44247844   235.97987893
 H     23   6   2     2.098800393774   110.20535010   116.24067104
 C      6   2   1     2.749468887059   122.02947353   316.97770267
 H     27   6   2     2.095646929453   112.25288925     1.76621510
 H     27   6   2     2.098623686887   109.24953539   243.47288503
 H     27   6   2     2.094403911062   110.55904223   125.20921129
 C      4   1   2     2.749480446466   122.03027247   316.98459331
 H     31   4   1     2.095652963788   112.25349658     1.76451641
 H     31   4   1     2.098634903355   109.24935185   243.47164075
 H     31   4   1     2.094404392057   110.55905813   125.20799307
 C      4   1   2     2.746590243269   120.74446721   142.84794268
 H     35   4   1     2.097615390428   111.87790723   354.69870758
 H     35   4   1     2.098433985543   109.44222237   235.97958071
 H     35   4   1     2.098798318904   110.20552351   116.23989917

---------------------
BASIS SET INFORMATION
---------------------
There are 3 groups of distinct atoms

 Group   1 Type C   : 11s6p2d1f contracted to 5s3p2d1f pattern {62111/411/11/1}
 Group   2 Type N   : 11s6p2d1f contracted to 5s3p2d1f pattern {62111/411/11/1}
 Group   3 Type H   : 5s1p contracted to 3s1p pattern {311/1}

Atom   0C    basis set group =>   1
Atom   1C    basis set group =>   1
Atom   2N    basis set group =>   2
Atom   3N    basis set group =>   2
Atom   4N    basis set group =>   2
Atom   5N    basis set group =>   2
Atom   6C    basis set group =>   1
Atom   7H    basis set group =>   3
Atom   8H    basis set group =>   3
Atom   9H    basis set group =>   3
Atom  10C    basis set group =>   1
Atom  11H    basis set group =>   3
Atom  12H    basis set group =>   3
Atom  13H    basis set group =>   3
Atom  14C    basis set group =>   1
Atom  15H    basis set group =>   3
Atom  16H    basis set group =>   3
Atom  17H    basis set group =>   3
Atom  18C    basis set group =>   1
Atom  19H    basis set group =>   3
Atom  20H    basis set group =>   3
Atom  21H    basis set group =>   3
Atom  22C    basis set group =>   1
Atom  23H    basis set group =>   3
Atom  24H    basis set group =>   3
Atom  25H    basis set group =>   3
Atom  26C    basis set group =>   1
Atom  27H    basis set group =>   3
Atom  28H    basis set group =>   3
Atom  29H    basis set group =>   3
Atom  30C    basis set group =>   1
Atom  31H    basis set group =>   3
Atom  32H    basis set group =>   3
Atom  33H    basis set group =>   3
Atom  34C    basis set group =>   1
Atom  35H    basis set group =>   3
Atom  36H    basis set group =>   3
Atom  37H    basis set group =>   3
---------------------------------
AUXILIARY/J BASIS SET INFORMATION
---------------------------------
There are 3 groups of distinct atoms

 Group   1 Type C   : 12s5p4d2f1g contracted to 6s4p3d1f1g pattern {711111/2111/211/2/1}
 Group   2 Type N   : 12s5p4d2f1g contracted to 6s4p3d1f1g pattern {711111/2111/211/2/1}
 Group   3 Type H   : 5s2p1d contracted to 3s1p1d pattern {311/2/1}

Atom   0C    basis set group =>   1
Atom   1C    basis set group =>   1
Atom   2N    basis set group =>   2
Atom   3N    basis set group =>   2
Atom   4N    basis set group =>   2
Atom   5N    basis set group =>   2
Atom   6C    basis set group =>   1
Atom   7H    basis set group =>   3
Atom   8H    basis set group =>   3
Atom   9H    basis set group =>   3
Atom  10C    basis set group =>   1
Atom  11H    basis set group =>   3
Atom  12H    basis set group =>   3
Atom  13H    basis set group =>   3
Atom  14C    basis set group =>   1
Atom  15H    basis set group =>   3
Atom  16H    basis set group =>   3
Atom  17H    basis set group =>   3
Atom  18C    basis set group =>   1
Atom  19H    basis set group =>   3
Atom  20H    basis set group =>   3
Atom  21H    basis set group =>   3
Atom  22C    basis set group =>   1
Atom  23H    basis set group =>   3
Atom  24H    basis set group =>   3
Atom  25H    basis set group =>   3
Atom  26C    basis set group =>   1
Atom  27H    basis set group =>   3
Atom  28H    basis set group =>   3
Atom  29H    basis set group =>   3
Atom  30C    basis set group =>   1
Atom  31H    basis set group =>   3
Atom  32H    basis set group =>   3
Atom  33H    basis set group =>   3
Atom  34C    basis set group =>   1
Atom  35H    basis set group =>   3
Atom  36H    basis set group =>   3
Atom  37H    basis set group =>   3
--------------------------------------------------------------------------
[[64043,1],3]: A high-performance Open MPI point-to-point messaging module
was unable to find any relevant network interfaces:

Module: OpenFabrics (openib)
  Host: compute-1-5

Another transport will be used instead, although this may result in
lower performance.

NOTE: You can disable this warning by setting the MCA parameter
btl_base_warn_component_unused to 0.
--------------------------------------------------------------------------


           ************************************************************
           *        Program running with 4 parallel MPI-processes     *
           *              working on a common directory               *
           ************************************************************
------------------------------------------------------------------------------
                           ORCA GTO INTEGRAL CALCULATION
------------------------------------------------------------------------------

                         BASIS SET STATISTICS AND STARTUP INFO

 # of primitive gaussian shells          ...  424
 # of primitive gaussian functions       ...  836
 # of contracted shells                  ...  250
 # of contracted basis functions         ...  578
 Highest angular momentum                ...    3
 Maximum contraction depth               ...    6
 Integral package used                   ... LIBINT
 Integral threshhold            Thresh   ...  2.500e-11
 Primitive cut-off              TCut     ...  2.500e-12


------------------------------ INTEGRAL EVALUATION ----------------------------


 * One electron integrals 
 Pre-screening matrix                    ... done
 Shell pair data                         ... done (   0.012 sec)

[compute-1-5.local:07167] 3 more processes have sent help message help-mpi-btl-base.txt / btl:no-nics
[compute-1-5.local:07167] Set MCA parameter "orte_base_help_aggregate" to 0 to see all help / error messages
--------------------------------------------------------------------------
[[64972,1],1]: A high-performance Open MPI point-to-point messaging module
was unable to find any relevant network interfaces:

Module: OpenFabrics (openib)
  Host: compute-1-5

Another transport will be used instead, although this may result in
lower performance.

NOTE: You can disable this warning by setting the MCA parameter
btl_base_warn_component_unused to 0.
--------------------------------------------------------------------------


           ************************************************************
           *        Program running with 4 parallel MPI-processes     *
           *              working on a common directory               *
           ************************************************************
-------------------------------------------------------------------------------
                                 ORCA SCF
-------------------------------------------------------------------------------

------------
SCF SETTINGS
------------
Hamiltonian:
 Density Functional     Method          .... DFT(GTOs)
 Exchange Functional    Exchange        .... WB97X-D3
 Correlation Functional Correlation     .... WB97X-D3
 Gradients option       PostSCFGGA      .... off
 Hybrid DFT is turned on
   Fraction HF Exchange ScalHFX         ....  0.195728
   Scaling of DF-GGA-X  ScalDFX         ....  0.000000
   Scaling of DF-GGA-C  ScalDFC         ....  1.000000
   Scaling of DF-LDA-C  ScalLDAC        ....  1.000000
   Perturbative correction              ....  0.000000
   Density functional embedding theory  .... OFF
 Long-range corrected/Screened/Range-Separated Hybrid DFT is turned on
   Amount of maximum screened exact exchange              ....  0.804272
   Range separation parameter mu (erf(mu*r12)/r12)        ....  0.250000


General Settings:
 Integral files         IntName         .... tdae
 Hartree-Fock type      HFTyp           .... RHF
 Total Charge           Charge          ....    0
 Multiplicity           Mult            ....    1
 Number of Electrons    NEL             ....  112
 Basis Dimension        Dim             ....  578
 Nuclear Repulsion      ENuc            ....   1055.2397598751 Eh

Convergence Acceleration:
 DIIS                   CNVDIIS         .... on
   Start iteration      DIISMaxIt       ....    12
   Startup error        DIISStart       ....  0.200000
   # of expansion vecs  DIISMaxEq       ....     5
   Bias factor          DIISBfac        ....   1.050
   Max. coefficient     DIISMaxC        ....  10.000
 Newton-Raphson         CNVNR           .... off
 SOSCF                  CNVSOSCF        .... on
   Start iteration      SOSCFMaxIt      ....   150
   Startup grad/error   SOSCFStart      ....  0.003300
 Level Shifting         CNVShift        .... on
   Level shift para.    LevelShift      ....    0.2500
   Turn off err/grad.   ShiftErr        ....    0.0010
 Zerner damping         CNVZerner       .... off
 Static damping         CNVDamp         .... on
   Fraction old density DampFac         ....    0.7000
   Max. Damping (<1)    DampMax         ....    0.9800
   Min. Damping (>=0)   DampMin         ....    0.0000
   Turn off err/grad.   DampErr         ....    0.1000
 Fernandez-Rico         CNVRico         .... off

SCF Procedure:
 Maximum # iterations   MaxIter         ....   125
 SCF integral mode      SCFMode         .... Direct
   Integral package                     .... LIBINT
 Reset frequency        DirectResetFreq ....    20
 Integral Threshold     Thresh          ....  2.500e-11 Eh
 Primitive CutOff       TCut            ....  2.500e-12 Eh

Convergence Tolerance:
 Convergence Check Mode ConvCheckMode   .... Total+1el-Energy
 Convergence forced     ConvForced      .... 0
 Energy Change          TolE            ....  1.000e-08 Eh
 1-El. energy change                    ....  1.000e-05 Eh
 Orbital Gradient       TolG            ....  1.000e-05
 Orbital Rotation angle TolX            ....  1.000e-05
 DIIS Error             TolErr          ....  5.000e-07


Diagonalization of the overlap matrix:
Smallest eigenvalue                        ... 3.066e-05
Time for diagonalization                   ...    0.151 sec
Threshold for overlap eigenvalues          ... 1.000e-08
Number of eigenvalues below threshold      ... 0
Time for construction of square roots      ...    0.058 sec
Total time needed                          ...    0.210 sec

-------------------
DFT GRID GENERATION
-------------------

General Integration Accuracy     IntAcc      ...  4.340
Radial Grid Type                 RadialGrid  ... Gauss-Chebyshev
Angular Grid (max. acc.)         AngularGrid ... Lebedev-110
Angular grid pruning method      GridPruning ... 3 (G Style)
Weight generation scheme         WeightScheme... Becke
Basis function cutoff            BFCut       ...    1.0000e-11
Integration weight cutoff        WCut        ...    1.0000e-14
Grids for H and He will be reduced by one unit

# of grid points (after initial pruning)     ...  42424 (   0.0 sec)
# of grid points (after weights+screening)   ...  37477 (   0.2 sec)
nearest neighbour list constructed           ...    0.0 sec
Grid point re-assignment to atoms done       ...    0.0 sec
Grid point division into batches done        ...    0.0 sec
Reduced shell lists constructed in    0.3 sec

Total number of grid points                  ...    37477
Total number of batches                      ...      606
Average number of points per batch           ...       61
Average number of grid points per atom       ...      986
Average number of shells per batch           ...   172.22 (68.89%)
Average number of basis functions per batch  ...   411.31 (71.16%)
Average number of large shells per batch     ...   128.80 (74.79%)
Average number of large basis fcns per batch ...   301.92 (73.40%)
Maximum spatial batch extension              ...  14.29, 13.01, 18.92 au
Average spatial batch extension              ...   0.51,  0.52,  0.55 au

Time for grid setup =    0.507 sec

------------------------------
INITIAL GUESS: MODEL POTENTIAL
------------------------------
Loading Hartree-Fock densities                     ... done
Calculating cut-offs                               ... done
Setting up the integral package                    ... done
Initializing the effective Hamiltonian             ... done
Starting the Coulomb interaction                   ... done (   0.6 sec)
Reading the grid                                   ... done
Mapping shells                                     ... done
Starting the XC term evaluation                    ... done (   0.8 sec)
  promolecular density results
     # of electrons  =    112.013066161
     EX              =    -84.337161062
     EC              =     -3.701295803
     EX+EC           =    -88.038456865
Transforming the Hamiltonian                       ... done (   0.1 sec)
Diagonalizing the Hamiltonian                      ... done (   0.1 sec)
Back transforming the eigenvectors                 ... done (   0.0 sec)
Now organizing SCF variables                       ... done
                      ------------------
                      INITIAL GUESS DONE (   2.3 sec)
                      ------------------

--------------------
CPCM SOLVATION MODEL
--------------------
CPCM parameters:
  Epsilon                                         ...       3.0000
  Refrac                                          ...       1.3300
  Rsolv                                           ...       1.3000
  Surface type                                    ...    GEPOL SES
  Epsilon function type                           ...         CPCM
Radii:
 Radius for C  used is    3.7795 Bohr (=   2.0000 Ang.)
 Radius for N  used is    3.4582 Bohr (=   1.8300 Ang.)
 Radius for H  used is    2.4566 Bohr (=   1.3000 Ang.)
Calculating surface                               ...        done! (  0.3s)
GEPOL surface points                              ...         1251
GEPOL Volume                                      ...    1921.1381
GEPOL Surface-area                                ...     924.7149
Calculating surface distance matrix               ...        done! (  0.0s)
Performing Cholesky decomposition & store         ...        done! (  0.1s)
Overall time for CPCM initialization              ...                 0.4s
--------------
SCF ITERATIONS
--------------
ITER       Energy         Delta-E        Max-DP      RMS-DP      [F,P]     Damp
               ***  Starting incremental Fock matrix formation  ***
[compute-1-5.local:07192] 3 more processes have sent help message help-mpi-btl-base.txt / btl:no-nics
[compute-1-5.local:07192] Set MCA parameter "orte_base_help_aggregate" to 0 to see all help / error messages
  0   -614.0901255204   0.000000000000 0.02322593  0.00056523  0.1366364 0.7000
  1   -614.2401674912  -0.150041970828 0.01701539  0.00046746  0.0831647 0.7000
                               ***Turning on DIIS***
  2   -614.3171672892  -0.076999797981 0.03988704  0.00100758  0.0437305 0.0000
  3   -614.4408308137  -0.123663524540 0.02033896  0.00030274  0.0299856 0.0000
  4   -614.4602002640  -0.019369450270 0.00868927  0.00010328  0.0048109 0.0000
                      *** Initiating the SOSCF procedure ***
                           *** Shutting down DIIS ***
                      *** Re-Reading the Fockian *** 
                      *** Removing any level shift *** 
ITER      Energy       Delta-E        Grad      Rot      Max-DP    RMS-DP
  5   -614.46074490  -0.0005446328  0.001432  0.001432  0.003721  0.000045
               *** Restarting incremental Fock matrix formation ***
  6   -614.46082103  -0.0000761353  0.000719  0.001552  0.001511  0.000031
  7   -614.46083438  -0.0000133445  0.000283  0.001057  0.000964  0.000018
  8   -614.46083625  -0.0000018773  0.000043  0.000045  0.000263  0.000003
  9   -614.46083653  -0.0000002713  0.000013  0.000037  0.000043  0.000001
 10   -614.46083655  -0.0000000216  0.000006  0.000016  0.000022  0.000000
                  ***Gradient check signals convergence***
              ***Rediagonalizing the Fockian in SOSCF/NRSCF***

               *****************************************************
               *                     SUCCESS                       *
               *           SCF CONVERGED AFTER  11 CYCLES          *
               *****************************************************

Setting up the final grid:

General Integration Accuracy     IntAcc      ...  4.670
Radial Grid Type                 RadialGrid  ... Gauss-Chebyshev
Angular Grid (max. acc.)         AngularGrid ... Lebedev-302
Angular grid pruning method      GridPruning ... 3 (G Style)
Weight generation scheme         WeightScheme... Becke
Basis function cutoff            BFCut       ...    1.0000e-11
Integration weight cutoff        WCut        ...    1.0000e-14
Grids for H and He will be reduced by one unit

# of grid points (after initial pruning)     ... 168424 (   0.0 sec)
# of grid points (after weights+screening)   ... 145414 (   0.6 sec)
nearest neighbour list constructed           ...    0.0 sec
Grid point re-assignment to atoms done       ...    0.0 sec
Grid point division into batches done        ...    0.6 sec
Reduced shell lists constructed in    1.6 sec

Total number of grid points                  ...   145414
Total number of batches                      ...     2291
Average number of points per batch           ...       63
Average number of grid points per atom       ...     3827
Average number of shells per batch           ...   159.45 (63.78%)
Average number of basis functions per batch  ...   376.90 (65.21%)
Average number of large shells per batch     ...   116.37 (72.98%)
Average number of large basis fcns per batch ...   269.56 (71.52%)
Maximum spatial batch extension              ...  18.84, 16.20, 15.66 au
Average spatial batch extension              ...   0.37,  0.38,  0.38 au

Final grid set up in    2.3 sec
Final integration                            ... done (   3.3 sec)
Change in XC energy                          ...     0.002964195
Integrated number of electrons               ...   111.999234175
Previous integrated no of electrons          ...   112.014510985

----------------
TOTAL SCF ENERGY
----------------

Total Energy       :         -614.45787236 Eh          -16720.24875 eV

Components:
Nuclear Repulsion  :         1055.23975988 Eh           28714.53368 eV
Electronic Energy  :        -1669.69763224 Eh          -45434.78243 eV
One Electron Energy:        -2927.40673362 Eh          -79658.78700 eV
Two Electron Energy:         1257.70910139 Eh           34224.00456 eV
CPCM Dielectric    :           -0.00243523 Eh              -0.06627 eV

Virial components:
Potential Energy   :        -1224.86575384 Eh          -33330.29164 eV
Kinetic Energy     :          610.40788147 Eh           16610.04289 eV
Virial Ratio       :            2.00663489


DFT components:
N(Alpha)           :       55.999617087691 electrons
N(Beta)            :       55.999617087691 electrons
N(Total)           :      111.999234175382 electrons
E(XC)              :      -61.783657061361 Eh       
DFET-embed. en.    :        0.000000000000 Eh       
CPCM Solvation Model Properties:
Surface-charge          :           -0.04096724
Charge-correction       :            0.00002500 Eh               0.00068 eV
Free-energy (cav+disp)  :            0.00489633 Eh               0.13324 eV
Corrected G(solv)       :         -614.45295103 Eh          -16720.11483 eV

---------------
SCF CONVERGENCE
---------------

  Last Energy change         ...   -1.0202e-08  Tolerance :   1.0000e-08
  Last MAX-Density change    ...    5.6157e-06  Tolerance :   1.0000e-07
  Last RMS-Density change    ...    1.4456e-07  Tolerance :   5.0000e-09
  Last Orbital Gradient      ...    2.0108e-06  Tolerance :   1.0000e-05
  Last Orbital Rotation      ...    7.4293e-06  Tolerance :   1.0000e-05

             **** THE GBW FILE WAS UPDATED (tdae.gbw) ****
             **** DENSITY FILE WAS UPDATED (tdae.scfp) ****
             **** ENERGY FILE WAS UPDATED (tdae.en.tmp) ****
             **** THE GBW FILE WAS UPDATED (tdae.gbw) ****
             **** DENSITY FILE WAS UPDATED (tdae.scfp) ****
----------------
ORBITAL ENERGIES
----------------

  NO   OCC          E(Eh)            E(eV) 
   0   2.0000     -14.406748      -392.0275 
   1   2.0000     -14.406718      -392.0267 
   2   2.0000     -14.406668      -392.0254 
   3   2.0000     -14.406632      -392.0244 
   4   2.0000     -10.312022      -280.6044 
   5   2.0000     -10.311403      -280.5875 
   6   2.0000     -10.289890      -280.0021 
   7   2.0000     -10.289868      -280.0016 
   8   2.0000     -10.289789      -279.9994 
   9   2.0000     -10.289781      -279.9992 
  10   2.0000     -10.286778      -279.9175 
  11   2.0000     -10.286775      -279.9174 
  12   2.0000     -10.286692      -279.9151 
  13   2.0000     -10.286688      -279.9150 
  14   2.0000      -1.058513       -28.8036 
  15   2.0000      -1.029443       -28.0126 
  16   2.0000      -1.003827       -27.3155 
  17   2.0000      -0.988500       -26.8985 
  18   2.0000      -0.852194       -23.1894 
  19   2.0000      -0.817872       -22.2554 
  20   2.0000      -0.810977       -22.0678 
  21   2.0000      -0.809126       -22.0174 
  22   2.0000      -0.805499       -21.9187 
  23   2.0000      -0.779088       -21.2000 
  24   2.0000      -0.733511       -19.9598 
  25   2.0000      -0.715899       -19.4806 
  26   2.0000      -0.681057       -18.5325 
  27   2.0000      -0.623058       -16.9543 
  28   2.0000      -0.600527       -16.3412 
  29   2.0000      -0.589668       -16.0457 
  30   2.0000      -0.564820       -15.3695 
  31   2.0000      -0.553664       -15.0660 
  32   2.0000      -0.551076       -14.9956 
  33   2.0000      -0.548462       -14.9244 
  34   2.0000      -0.535562       -14.5734 
  35   2.0000      -0.529719       -14.4144 
  36   2.0000      -0.523622       -14.2485 
  37   2.0000      -0.518668       -14.1137 
  38   2.0000      -0.517728       -14.0881 
  39   2.0000      -0.490744       -13.3538 
  40   2.0000      -0.481971       -13.1151 
  41   2.0000      -0.480929       -13.0867 
  42   2.0000      -0.470090       -12.7918 
  43   2.0000      -0.463466       -12.6116 
  44   2.0000      -0.460869       -12.5409 
  45   2.0000      -0.459513       -12.5040 
  46   2.0000      -0.458124       -12.4662 
  47   2.0000      -0.457786       -12.4570 
  48   2.0000      -0.456979       -12.4350 
  49   2.0000      -0.453299       -12.3349 
  50   2.0000      -0.447243       -12.1701 
  51   2.0000      -0.381961       -10.3937 
  52   2.0000      -0.330153        -8.9839 
  53   2.0000      -0.297558        -8.0970 
  54   2.0000      -0.290331        -7.9003 
  55   2.0000      -0.204372        -5.5612 
  56   0.0000       0.098915         2.6916 
  57   0.0000       0.124585         3.3901 
  58   0.0000       0.129350         3.5198 
  59   0.0000       0.132668         3.6101 
  60   0.0000       0.154268         4.1978 
  61   0.0000       0.158391         4.3100 
  62   0.0000       0.159412         4.3378 
  63   0.0000       0.161517         4.3951 
  64   0.0000       0.167057         4.5458 
  65   0.0000       0.169666         4.6168 
  66   0.0000       0.177643         4.8339 
  67   0.0000       0.184260         5.0140 
  68   0.0000       0.188529         5.1301 
  69   0.0000       0.189012         5.1433 
  70   0.0000       0.193447         5.2640 
  71   0.0000       0.199084         5.4174 
  72   0.0000       0.203509         5.5377 
  73   0.0000       0.210759         5.7350 
  74   0.0000       0.219680         5.9778 
  75   0.0000       0.221181         6.0187 
  76   0.0000       0.224085         6.0977 
  77   0.0000       0.229460         6.2439 
  78   0.0000       0.230200         6.2641 
  79   0.0000       0.231708         6.3051 
  80   0.0000       0.240644         6.5483 
  81   0.0000       0.240827         6.5532 
  82   0.0000       0.254912         6.9365 
  83   0.0000       0.256562         6.9814 
  84   0.0000       0.264739         7.2039 
  85   0.0000       0.275540         7.4978 
  86   0.0000       0.279752         7.6124 
  87   0.0000       0.281819         7.6687 
  88   0.0000       0.293796         7.9946 
  89   0.0000       0.304725         8.2920 
  90   0.0000       0.308789         8.4026 
  91   0.0000       0.311221         8.4688 
  92   0.0000       0.324577         8.8322 
  93   0.0000       0.328025         8.9260 
  94   0.0000       0.336647         9.1606 
  95   0.0000       0.340407         9.2629 
  96   0.0000       0.348477         9.4825 
  97   0.0000       0.367880        10.0105 
  98   0.0000       0.379650        10.3308 
  99   0.0000       0.380299        10.3485 
 100   0.0000       0.383188        10.4271 
 101   0.0000       0.389652        10.6030 
 102   0.0000       0.399661        10.8753 
 103   0.0000       0.407772        11.0960 
 104   0.0000       0.413127        11.2418 
 105   0.0000       0.413198        11.2437 
 106   0.0000       0.414118        11.2687 
 107   0.0000       0.436602        11.8806 
 108   0.0000       0.444691        12.1007 
 109   0.0000       0.447510        12.1774 
 110   0.0000       0.455993        12.4082 
 111   0.0000       0.468064        12.7367 
 112   0.0000       0.468499        12.7485 
 113   0.0000       0.468744        12.7552 
 114   0.0000       0.475855        12.9487 
 115   0.0000       0.479799        13.0560 
 116   0.0000       0.500294        13.6137 
 117   0.0000       0.507037        13.7972 
 118   0.0000       0.508724        13.8431 
 119   0.0000       0.510329        13.8868 
 120   0.0000       0.518895        14.1198 
 121   0.0000       0.519434        14.1345 
 122   0.0000       0.526678        14.3316 
 123   0.0000       0.534338        14.5401 
 124   0.0000       0.534600        14.5472 
 125   0.0000       0.537400        14.6234 
 126   0.0000       0.542230        14.7548 
 127   0.0000       0.544145        14.8070 
 128   0.0000       0.549163        14.9435 
 129   0.0000       0.550872        14.9900 
 130   0.0000       0.555096        15.1049 
 131   0.0000       0.556282        15.1372 
 132   0.0000       0.564530        15.3617 
 133   0.0000       0.568902        15.4806 
 134   0.0000       0.569518        15.4974 
 135   0.0000       0.574145        15.6233 
 136   0.0000       0.579253        15.7623 
 137   0.0000       0.579427        15.7670 
 138   0.0000       0.581802        15.8316 
 139   0.0000       0.583079        15.8664 
 140   0.0000       0.586033        15.9468 
 141   0.0000       0.595384        16.2012 
 142   0.0000       0.596585        16.2339 
 143   0.0000       0.599455        16.3120 
 144   0.0000       0.604104        16.4385 
 145   0.0000       0.633514        17.2388 
 146   0.0000       0.634602        17.2684 
 147   0.0000       0.642872        17.4934 
 148   0.0000       0.644881        17.5481 
 149   0.0000       0.653360        17.7788 
 150   0.0000       0.673164        18.3177 
 151   0.0000       0.673706        18.3325 
 152   0.0000       0.680195        18.5091 
 153   0.0000       0.684064        18.6143 
 154   0.0000       0.686416        18.6783 
 155   0.0000       0.694820        18.9070 
 156   0.0000       0.716818        19.5056 
 157   0.0000       0.720401        19.6031 
 158   0.0000       0.729402        19.8480 
 159   0.0000       0.737615        20.0715 
 160   0.0000       0.750640        20.4260 
 161   0.0000       0.755669        20.5628 
 162   0.0000       0.759578        20.6692 
 163   0.0000       0.777407        21.1543 
 164   0.0000       0.778460        21.1830 
 165   0.0000       0.785027        21.3617 
 166   0.0000       0.807567        21.9750 
 167   0.0000       0.815814        22.1994 
 168   0.0000       0.836867        22.7723 
 169   0.0000       0.840666        22.8757 
 170   0.0000       0.857674        23.3385 
 171   0.0000       0.870324        23.6827 
 172   0.0000       0.878961        23.9177 
 173   0.0000       0.913521        24.8582 
 174   0.0000       0.918158        24.9844 
 175   0.0000       0.928873        25.2759 
 176   0.0000       0.929804        25.3012 
 177   0.0000       0.931420        25.3452 
 178   0.0000       0.945601        25.7311 
 179   0.0000       0.950623        25.8678 
 180   0.0000       0.951464        25.8907 
 181   0.0000       0.952614        25.9219 
 182   0.0000       0.975534        26.5456 
 183   0.0000       1.004380        27.3306 
 184   0.0000       1.013665        27.5832 
 185   0.0000       1.015573        27.6352 
 186   0.0000       1.019196        27.7337 
 187   0.0000       1.043453        28.3938 
 188   0.0000       1.051764        28.6200 
 189   0.0000       1.092570        29.7303 
 190   0.0000       1.094830        29.7918 
 191   0.0000       1.105906        30.0932 
 192   0.0000       1.109275        30.1849 
 193   0.0000       1.111007        30.2320 
 194   0.0000       1.116409        30.3790 
 195   0.0000       1.130873        30.7726 
 196   0.0000       1.149860        31.2893 
 197   0.0000       1.157454        31.4959 
 198   0.0000       1.173570        31.9345 
 199   0.0000       1.177289        32.0357 
 200   0.0000       1.177352        32.0374 
 201   0.0000       1.183942        32.2167 
 202   0.0000       1.190074        32.3835 
 203   0.0000       1.194134        32.4940 
 204   0.0000       1.196141        32.5486 
 205   0.0000       1.206213        32.8227 
 206   0.0000       1.207669        32.8624 
 207   0.0000       1.216040        33.0901 
 208   0.0000       1.225354        33.3436 
 209   0.0000       1.237005        33.6606 
 210   0.0000       1.254378        34.1334 
 211   0.0000       1.264506        34.4090 
 212   0.0000       1.266615        34.4663 
 213   0.0000       1.280856        34.8539 
 214   0.0000       1.291238        35.1364 
 215   0.0000       1.291308        35.1383 
 216   0.0000       1.318876        35.8884 
 217   0.0000       1.341723        36.5101 
 218   0.0000       1.347665        36.6718 
 219   0.0000       1.390400        37.8347 
 220   0.0000       1.418805        38.6076 
 221   0.0000       1.440323        39.1932 
 222   0.0000       1.463384        39.8207 
 223   0.0000       1.465132        39.8683 
 224   0.0000       1.517863        41.3031 
 225   0.0000       1.521929        41.4138 
 226   0.0000       1.527479        41.5648 
 227   0.0000       1.540148        41.9096 
 228   0.0000       1.542105        41.9628 
 229   0.0000       1.562929        42.5295 
 230   0.0000       1.563264        42.5386 
 231   0.0000       1.584481        43.1159 
 232   0.0000       1.589607        43.2554 
 233   0.0000       1.605705        43.6935 
 234   0.0000       1.612835        43.8875 
 235   0.0000       1.621387        44.1202 
 236   0.0000       1.633198        44.4416 
 237   0.0000       1.635644        44.5081 
 238   0.0000       1.639373        44.6096 
 239   0.0000       1.652929        44.9785 
 240   0.0000       1.659229        45.1499 
 241   0.0000       1.662735        45.2453 
 242   0.0000       1.667189        45.3665 
 243   0.0000       1.669213        45.4216 
 244   0.0000       1.671693        45.4891 
 245   0.0000       1.676170        45.6109 
 246   0.0000       1.678649        45.6784 
 247   0.0000       1.679185        45.6929 
 248   0.0000       1.682380        45.7799 
 249   0.0000       1.690836        46.0100 
 250   0.0000       1.691123        46.0178 
 251   0.0000       1.698343        46.2143 
 252   0.0000       1.704472        46.3810 
 253   0.0000       1.708615        46.4938 
 254   0.0000       1.710822        46.5538 
 255   0.0000       1.721225        46.8369 
 256   0.0000       1.723344        46.8946 
 257   0.0000       1.729545        47.0633 
 258   0.0000       1.745513        47.4978 
 259   0.0000       1.747334        47.5474 
 260   0.0000       1.764922        48.0260 
 261   0.0000       1.768587        48.1257 
 262   0.0000       1.772369        48.2286 
 263   0.0000       1.775465        48.3129 
 264   0.0000       1.786885        48.6236 
 265   0.0000       1.792006        48.7630 
 266   0.0000       1.799602        48.9696 
 267   0.0000       1.814206        49.3671 
 268   0.0000       1.824745        49.6538 
 269   0.0000       1.850022        50.3416 
 270   0.0000       1.884919        51.2913 
 271   0.0000       1.903000        51.7833 
 272   0.0000       1.908765        51.9401 
 273   0.0000       1.920943        52.2715 
 274   0.0000       1.932610        52.5890 
 275   0.0000       1.932794        52.5940 
 276   0.0000       1.942632        52.8617 
 277   0.0000       1.966294        53.5056 
 278   0.0000       1.972791        53.6824 
 279   0.0000       1.982619        53.9498 
 280   0.0000       1.992905        54.2297 
 281   0.0000       2.018103        54.9154 
 282   0.0000       2.035152        55.3793 
 283   0.0000       2.037495        55.4430 
 284   0.0000       2.038773        55.4778 
 285   0.0000       2.059675        56.0466 
 286   0.0000       2.063803        56.1589 
 287   0.0000       2.065050        56.1929 
 288   0.0000       2.073620        56.4261 
 289   0.0000       2.091798        56.9207 
 290   0.0000       2.095122        57.0112 
 291   0.0000       2.105429        57.2916 
 292   0.0000       2.119765        57.6817 
 293   0.0000       2.137983        58.1775 
 294   0.0000       2.145014        58.3688 
 295   0.0000       2.166425        58.9514 
 296   0.0000       2.172864        59.1266 
 297   0.0000       2.176354        59.2216 
 298   0.0000       2.177558        59.2544 
 299   0.0000       2.177932        59.2645 
 300   0.0000       2.204132        59.9775 
 301   0.0000       2.225088        60.5477 
 302   0.0000       2.252886        61.3041 
 303   0.0000       2.256138        61.3926 
 304   0.0000       2.268062        61.7171 
 305   0.0000       2.276455        61.9455 
 306   0.0000       2.291310        62.3497 
 307   0.0000       2.299722        62.5786 
 308   0.0000       2.315953        63.0203 
 309   0.0000       2.316415        63.0329 
 310   0.0000       2.343993        63.7833 
 311   0.0000       2.362337        64.2825 
 312   0.0000       2.364097        64.3303 
 313   0.0000       2.373545        64.5875 
 314   0.0000       2.381145        64.7942 
 315   0.0000       2.381206        64.7959 
 316   0.0000       2.397451        65.2380 
 317   0.0000       2.404573        65.4318 
 318   0.0000       2.415146        65.7195 
 319   0.0000       2.417023        65.7705 
 320   0.0000       2.431983        66.1776 
 321   0.0000       2.449709        66.6600 
 322   0.0000       2.450076        66.6700 
 323   0.0000       2.452715        66.7418 
 324   0.0000       2.466182        67.1082 
 325   0.0000       2.468362        67.1675 
 326   0.0000       2.488387        67.7124 
 327   0.0000       2.493003        67.8381 
 328   0.0000       2.494287        67.8730 
 329   0.0000       2.500694        68.0473 
 330   0.0000       2.518747        68.5386 
 331   0.0000       2.529081        68.8198 
 332   0.0000       2.535838        69.0037 
 333   0.0000       2.551589        69.4323 
 334   0.0000       2.559371        69.6440 
 335   0.0000       2.564923        69.7951 
 336   0.0000       2.568477        69.8918 
 337   0.0000       2.573877        70.0388 
 338   0.0000       2.583377        70.2972 
 339   0.0000       2.591272        70.5121 
 340   0.0000       2.594449        70.5986 
 341   0.0000       2.609138        70.9982 
 342   0.0000       2.614994        71.1576 
 343   0.0000       2.623747        71.3958 
 344   0.0000       2.627980        71.5110 
 345   0.0000       2.630829        71.5885 
 346   0.0000       2.640008        71.8383 
 347   0.0000       2.648028        72.0565 
 348   0.0000       2.652605        72.1811 
 349   0.0000       2.663290        72.4718 
 350   0.0000       2.676533        72.8322 
 351   0.0000       2.676625        72.8347 
 352   0.0000       2.691450        73.2381 
 353   0.0000       2.693970        73.3066 
 354   0.0000       2.708578        73.7041 
 355   0.0000       2.708728        73.7082 
 356   0.0000       2.712213        73.8031 
 357   0.0000       2.718166        73.9651 
 358   0.0000       2.718556        73.9757 
 359   0.0000       2.729934        74.2853 
 360   0.0000       2.737879        74.5015 
 361   0.0000       2.750944        74.8570 
 362   0.0000       2.753900        74.9374 
 363   0.0000       2.756535        75.0091 
 364   0.0000       2.765142        75.2433 
 365   0.0000       2.773854        75.4804 
 366   0.0000       2.778210        75.5989 
 367   0.0000       2.779081        75.6226 
 368   0.0000       2.788767        75.8862 
 369   0.0000       2.793332        76.0104 
 370   0.0000       2.810814        76.4861 
 371   0.0000       2.816327        76.6361 
 372   0.0000       2.855361        77.6983 
 373   0.0000       2.876690        78.2787 
 374   0.0000       2.877630        78.3043 
 375   0.0000       2.903676        79.0130 
 376   0.0000       2.917885        79.3997 
 377   0.0000       2.918109        79.4058 
 378   0.0000       2.930145        79.7333 
 379   0.0000       2.950077        80.2757 
 380   0.0000       2.962521        80.6143 
 381   0.0000       2.967239        80.7427 
 382   0.0000       2.984562        81.2141 
 383   0.0000       3.011239        81.9400 
 384   0.0000       3.025150        82.3185 
 385   0.0000       3.040462        82.7352 
 386   0.0000       3.066586        83.4461 
 387   0.0000       3.109992        84.6272 
 388   0.0000       3.121572        84.9423 
 389   0.0000       3.130748        85.1920 
 390   0.0000       3.138385        85.3998 
 391   0.0000       3.173906        86.3664 
 392   0.0000       3.178206        86.4834 
 393   0.0000       3.180437        86.5441 
 394   0.0000       3.186403        86.7064 
 395   0.0000       3.189166        86.7816 
 396   0.0000       3.207356        87.2766 
 397   0.0000       3.210817        87.3708 
 398   0.0000       3.223931        87.7276 
 399   0.0000       3.237791        88.1048 
 400   0.0000       3.244842        88.2966 
 401   0.0000       3.255445        88.5852 
 402   0.0000       3.261252        88.7432 
 403   0.0000       3.262527        88.7779 
 404   0.0000       3.276610        89.1611 
 405   0.0000       3.277142        89.1756 
 406   0.0000       3.283572        89.3506 
 407   0.0000       3.297060        89.7176 
 408   0.0000       3.306214        89.9667 
 409   0.0000       3.313776        90.1724 
 410   0.0000       3.315860        90.2291 
 411   0.0000       3.329427        90.5983 
 412   0.0000       3.340779        90.9072 
 413   0.0000       3.341605        90.9297 
 414   0.0000       3.348003        91.1038 
 415   0.0000       3.349715        91.1504 
 416   0.0000       3.373881        91.8080 
 417   0.0000       3.373968        91.8103 
 418   0.0000       3.377570        91.9084 
 419   0.0000       3.401862        92.5694 
 420   0.0000       3.411490        92.8314 
 421   0.0000       3.419671        93.0540 
 422   0.0000       3.428364        93.2905 
 423   0.0000       3.439765        93.6008 
 424   0.0000       3.444681        93.7345 
 425   0.0000       3.449651        93.8698 
 426   0.0000       3.457260        94.0768 
 427   0.0000       3.458090        94.0994 
 428   0.0000       3.458732        94.1169 
 429   0.0000       3.461068        94.1805 
 430   0.0000       3.468490        94.3824 
 431   0.0000       3.472581        94.4937 
 432   0.0000       3.477931        94.6393 
 433   0.0000       3.487124        94.8895 
 434   0.0000       3.499699        95.2317 
 435   0.0000       3.519581        95.7727 
 436   0.0000       3.529611        96.0456 
 437   0.0000       3.569622        97.1343 
 438   0.0000       3.582336        97.4803 
 439   0.0000       3.586675        97.5984 
 440   0.0000       3.590452        97.7012 
 441   0.0000       3.597441        97.8913 
 442   0.0000       3.600144        97.9649 
 443   0.0000       3.605992        98.1240 
 444   0.0000       3.607060        98.1531 
 445   0.0000       3.620842        98.5281 
 446   0.0000       3.639773        99.0433 
 447   0.0000       3.641409        99.0878 
 448   0.0000       3.654568        99.4459 
 449   0.0000       3.673290        99.9553 
 450   0.0000       3.675656       100.0197 
 451   0.0000       3.676404       100.0400 
 452   0.0000       3.687560       100.3436 
 453   0.0000       3.703266       100.7710 
 454   0.0000       3.706493       100.8588 
 455   0.0000       3.709498       100.9406 
 456   0.0000       3.719051       101.2005 
 457   0.0000       3.719578       101.2149 
 458   0.0000       3.746142       101.9377 
 459   0.0000       3.753795       102.1460 
 460   0.0000       3.780988       102.8859 
 461   0.0000       3.786676       103.0407 
 462   0.0000       3.807192       103.5990 
 463   0.0000       3.813056       103.7585 
 464   0.0000       3.868694       105.2725 
 465   0.0000       3.874997       105.4440 
 466   0.0000       3.876024       105.4720 
 467   0.0000       3.877091       105.5010 
 468   0.0000       3.901238       106.1581 
 469   0.0000       3.916331       106.5688 
 470   0.0000       3.916408       106.5709 
 471   0.0000       3.933476       107.0353 
 472   0.0000       3.942907       107.2919 
 473   0.0000       3.991193       108.6059 
 474   0.0000       4.019244       109.3692 
 475   0.0000       4.077562       110.9561 
 476   0.0000       4.077845       110.9638 
 477   0.0000       4.079018       110.9957 
 478   0.0000       4.086542       111.2005 
 479   0.0000       4.127775       112.3225 
 480   0.0000       4.187862       113.9575 
 481   0.0000       4.202909       114.3670 
 482   0.0000       4.214013       114.6691 
 483   0.0000       4.218684       114.7962 
 484   0.0000       4.240619       115.3931 
 485   0.0000       4.245240       115.5188 
 486   0.0000       4.263257       116.0091 
 487   0.0000       4.275682       116.3472 
 488   0.0000       4.275896       116.3530 
 489   0.0000       4.284144       116.5775 
 490   0.0000       4.291946       116.7898 
 491   0.0000       4.323133       117.6384 
 492   0.0000       4.347742       118.3081 
 493   0.0000       4.350604       118.3859 
 494   0.0000       4.352937       118.4494 
 495   0.0000       4.363101       118.7260 
 496   0.0000       4.379616       119.1754 
 497   0.0000       4.395499       119.6076 
 498   0.0000       4.409613       119.9917 
 499   0.0000       4.436344       120.7191 
 500   0.0000       4.437951       120.7628 
 501   0.0000       4.499917       122.4490 
 502   0.0000       4.507093       122.6442 
 503   0.0000       4.514697       122.8512 
 504   0.0000       4.526238       123.1652 
 505   0.0000       4.530865       123.2911 
 506   0.0000       4.545336       123.6849 
 507   0.0000       4.561927       124.1364 
 508   0.0000       4.565064       124.2217 
 509   0.0000       4.616063       125.6095 
 510   0.0000       4.625673       125.8710 
 511   0.0000       4.635162       126.1292 
 512   0.0000       4.672580       127.1474 
 513   0.0000       4.690576       127.6371 
 514   0.0000       4.705794       128.0512 
 515   0.0000       4.906995       133.5261 
 516   0.0000       4.961235       135.0021 
 517   0.0000       5.005762       136.2137 
 518   0.0000       5.039394       137.1289 
 519   0.0000       5.051746       137.4650 
 520   0.0000       5.054268       137.5336 
 521   0.0000       5.104372       138.8970 
 522   0.0000       5.127393       139.5235 
 523   0.0000       5.145667       140.0207 
 524   0.0000       5.161060       140.4396 
 525   0.0000       5.162005       140.4653 
 526   0.0000       5.166296       140.5821 
 527   0.0000       5.239656       142.5783 
 528   0.0000       5.264861       143.2641 
 529   0.0000       5.269148       143.3808 
 530   0.0000       5.321962       144.8179 
 531   0.0000       5.328612       144.9989 
 532   0.0000       5.345384       145.4553 
 533   0.0000       5.364330       145.9708 
 534   0.0000       5.366393       146.0270 
 535   0.0000       5.378387       146.3533 
 536   0.0000       5.391234       146.7029 
 537   0.0000       5.404446       147.0624 
 538   0.0000       5.414854       147.3457 
 539   0.0000       5.423557       147.5825 
 540   0.0000       5.446747       148.2135 
 541   0.0000       5.478206       149.0696 
 542   0.0000       5.496366       149.5637 
 543   0.0000       5.498966       149.6345 
 544   0.0000       5.576175       151.7354 
 545   0.0000       5.596043       152.2761 
 546   0.0000       5.602884       152.4622 
 547   0.0000       5.607349       152.5837 
 548   0.0000       5.618815       152.8957 
 549   0.0000       5.688706       154.7976 
 550   0.0000       5.706042       155.2693 
 551   0.0000       5.728461       155.8794 
 552   0.0000       5.742813       156.2699 
 553   0.0000       5.796734       157.7372 
 554   0.0000       5.852202       159.2465 
 555   0.0000       5.855644       159.3402 
 556   0.0000       5.860197       159.4641 
 557   0.0000       6.001787       163.3169 
 558   0.0000       6.053264       164.7177 
 559   0.0000       6.074696       165.3009 
 560   0.0000       6.091122       165.7479 
 561   0.0000       6.143381       167.1699 
 562   0.0000       6.241382       169.8366 
 563   0.0000       6.287783       171.0993 
 564   0.0000      22.463635       611.2666 
 565   0.0000      22.470892       611.4641 
 566   0.0000      22.488999       611.9568 
 567   0.0000      22.496109       612.1502 
 568   0.0000      22.551361       613.6537 
 569   0.0000      22.567958       614.1053 
 570   0.0000      22.586258       614.6033 
 571   0.0000      22.601813       615.0266 
 572   0.0000      22.912315       623.4758 
 573   0.0000      23.144140       629.7841 
 574   0.0000      32.880335       894.7194 
 575   0.0000      32.880487       894.7235 
 576   0.0000      32.978846       897.4000 
 577   0.0000      33.118859       901.2100 

                    ********************************
                    * MULLIKEN POPULATION ANALYSIS *
                    ********************************

-----------------------
MULLIKEN ATOMIC CHARGES
-----------------------
   0 C :   -0.055571
   1 C :   -0.054050
   2 N :   -0.159836
   3 N :   -0.159596
   4 N :   -0.157221
   5 N :   -0.156782
   6 C :   -0.306758
   7 H :    0.162604
   8 H :    0.116258
   9 H :    0.124327
  10 C :   -0.310321
  11 H :    0.154635
  12 H :    0.125273
  13 H :    0.120263
  14 C :   -0.308642
  15 H :    0.163198
  16 H :    0.117012
  17 H :    0.125574
  18 C :   -0.315019
  19 H :    0.156632
  20 H :    0.124877
  21 H :    0.121758
  22 C :   -0.314835
  23 H :    0.156320
  24 H :    0.124918
  25 H :    0.121878
  26 C :   -0.309180
  27 H :    0.163239
  28 H :    0.117072
[...]
      py      :     1.203979
      dz2     :     0.057161  d :     0.300139
      dxz     :     0.058666
      dyz     :     0.073916
      dx2y2   :     0.048582
      dxy     :     0.061814
      f0      :     0.002742  f :     0.020698
      f+1     :     0.003332
      f-1     :     0.002686
      f+2     :     0.003341
      f-2     :     0.003157
      f+3     :     0.002445
      f-3     :     0.002995
  3 N s       :     2.879200  s :     2.879200
      pz      :     1.224160  p :     3.688270
      px      :     1.261134
      py      :     1.202976
      dz2     :     0.057233  d :     0.300172
      dxz     :     0.058459
      dyz     :     0.074209
      dx2y2   :     0.048509
      dxy     :     0.061762
      f0      :     0.002754  f :     0.020701
      f+1     :     0.003320
      f-1     :     0.002689
      f+2     :     0.003354
      f-2     :     0.003148
      f+3     :     0.002446
      f-3     :     0.002989
  4 N s       :     2.879064  s :     2.879064
      pz      :     1.237149  p :     3.687902
      px      :     1.260272
      py      :     1.190482
      dz2     :     0.054964  d :     0.300356
      dxz     :     0.056387
      dyz     :     0.073909
      dx2y2   :     0.050930
      dxy     :     0.064166
      f0      :     0.002771  f :     0.020705
      f+1     :     0.003063
      f-1     :     0.002618
      f+2     :     0.003221
      f-2     :     0.003426
      f+3     :     0.002421
      f-3     :     0.003185
  5 N s       :     2.879047  s :     2.879047
      pz      :     1.236594  p :     3.687912
      px      :     1.259762
      py      :     1.191556
      dz2     :     0.055051  d :     0.300351
      dxz     :     0.056598
      dyz     :     0.073819
      dx2y2   :     0.050859
      dxy     :     0.064024
      f0      :     0.002780  f :     0.020705
      f+1     :     0.003063
      f-1     :     0.002614
      f+2     :     0.003196
      f-2     :     0.003454
      f+3     :     0.002417
      f-3     :     0.003181
  6 C s       :     2.827647  s :     2.827647
      pz      :     0.989939  p :     3.086089
      px      :     1.072614
      py      :     1.023536
      dz2     :     0.079254  d :     0.362085
      dxz     :     0.073071
      dyz     :     0.072123
      dx2y2   :     0.030272
      dxy     :     0.107365
      f0      :     0.010185  f :     0.041973
      f+1     :     0.003192
      f-1     :     0.007795
      f+2     :     0.006042
      f-2     :     0.007055
      f+3     :     0.003660
      f-3     :     0.004044
  7 H s       :     0.816573  s :     0.816573
      pz      :     0.022289  p :     0.061039
      px      :     0.019870
      py      :     0.018879
  8 H s       :     0.825597  s :     0.825597
      pz      :     0.016332  p :     0.059703
      px      :     0.027648
      py      :     0.015723
  9 H s       :     0.838541  s :     0.838541
      pz      :     0.013655  p :     0.061212
      px      :     0.021568
      py      :     0.025989
 10 C s       :     2.829323  s :     2.829323
      pz      :     1.019585  p :     3.092858
      px      :     1.007202
      py      :     1.066071
      dz2     :     0.049466  d :     0.355833
      dxz     :     0.072159
      dyz     :     0.109492
      dx2y2   :     0.067472
      dxy     :     0.057244
      f0      :     0.007160  f :     0.041356
      f+1     :     0.006954
      f-1     :     0.003875
      f+2     :     0.007124
      f-2     :     0.006276
      f+3     :     0.006303
      f-3     :     0.003664
 11 H s       :     0.814404  s :     0.814404
      pz      :     0.020344  p :     0.062810
      px      :     0.014109
      py      :     0.028357
 12 H s       :     0.835394  s :     0.835394
      pz      :     0.020138  p :     0.060587
      px      :     0.014870
      py      :     0.025579
 13 H s       :     0.826467  s :     0.826467
      pz      :     0.016919  p :     0.059836
      px      :     0.026947
      py      :     0.015969
 14 C s       :     2.827650  s :     2.827650
      pz      :     1.001811  p :     3.086202
      px      :     1.072060
      py      :     1.012331
      dz2     :     0.075323  d :     0.362189
      dxz     :     0.069047
      dyz     :     0.073684
      dx2y2   :     0.032012
      dxy     :     0.112123
      f0      :     0.008703  f :     0.041973
      f+1     :     0.002858
      f-1     :     0.008736
      f+2     :     0.005865
      f-2     :     0.007052
      f+3     :     0.003987
      f-3     :     0.004772
 15 H s       :     0.816353  s :     0.816353
      pz      :     0.023701  p :     0.060999
      px      :     0.019799
      py      :     0.017499
 16 H s       :     0.825624  s :     0.825624
      pz      :     0.016021  p :     0.059696
      px      :     0.027496
      py      :     0.016180
 17 H s       :     0.838509  s :     0.838509
      pz      :     0.014772  p :     0.061201
      px      :     0.021677
      py      :     0.024752
 18 C s       :     2.829340  s :     2.829340
      pz      :     1.013613  p :     3.092966
      px      :     1.007481
      py      :     1.071872
      dz2     :     0.057525  d :     0.355892
      dxz     :     0.072053
      dyz     :     0.107360
      dx2y2   :     0.060478
      dxy     :     0.058476
      f0      :     0.007711  f :     0.041338
      f+1     :     0.007403
      f-1     :     0.003582
      f+2     :     0.006913
      f-2     :     0.006331
      f+3     :     0.005832
      f-3     :     0.003567
 19 H s       :     0.814528  s :     0.814528
      pz      :     0.018610  p :     0.062832
      px      :     0.014230
      py      :     0.029992
 20 H s       :     0.835503  s :     0.835503
      pz      :     0.021593  p :     0.060558
      px      :     0.014901
      py      :     0.024063
 21 H s       :     0.826383  s :     0.826383
      pz      :     0.016258  p :     0.059853
      px      :     0.026768
      py      :     0.016827
 22 C s       :     2.829352  s :     2.829352
      pz      :     1.013387  p :     3.092976
      px      :     1.007398
      py      :     1.072191
      dz2     :     0.057496  d :     0.355827
      dxz     :     0.071908
      dyz     :     0.107496
      dx2y2   :     0.061178
      dxy     :     0.057750
      f0      :     0.007738  f :     0.041339
      f+1     :     0.007403
      f-1     :     0.003565
      f+2     :     0.006939
      f-2     :     0.006323
      f+3     :     0.005802
      f-3     :     0.003569
 23 H s       :     0.814526  s :     0.814526
      pz      :     0.018662  p :     0.062824
      px      :     0.014139
      py      :     0.030022
 24 H s       :     0.835381  s :     0.835381
      pz      :     0.021517  p :     0.060556
      px      :     0.014863
      py      :     0.024177
 25 H s       :     0.826419  s :     0.826419
      pz      :     0.016223  p :     0.059853
      px      :     0.026896
      py      :     0.016734
 26 C s       :     2.827664  s :     2.827664
      pz      :     1.001622  p :     3.086177
      px      :     1.072562
      py      :     1.011993
      dz2     :     0.075292  d :     0.362180
      dxz     :     0.069293
      dyz     :     0.073558
      dx2y2   :     0.032755
      dxy     :     0.111281
      f0      :     0.008727  f :     0.041972
      f+1     :     0.002835
      f-1     :     0.008743
      f+2     :     0.005863
      f-2     :     0.007064
      f+3     :     0.004006
      f-3     :     0.004735
 27 H s       :     0.816351  s :     0.816351
      pz      :     0.023676  p :     0.061006
      px      :     0.019903
      py      :     0.017428
 28 H s       :     0.825667  s :     0.825667
      pz      :     0.016023  p :     0.059695
      px      :     0.027627
      py      :     0.016045
 29 H s       :     0.838577  s :     0.838577
      pz      :     0.014752  p :     0.061187
      px      :     0.021516
      py      :     0.024919
 30 C s       :     2.827638  s :     2.827638
      pz      :     0.989902  p :     3.086086
      px      :     1.072433
      py      :     1.023750
      dz2     :     0.079263  d :     0.362055
      dxz     :     0.072916
      dyz     :     0.072236
      dx2y2   :     0.029826
      dxy     :     0.107815
      f0      :     0.010176  f :     0.041977
      f+1     :     0.003208
      f-1     :     0.007790
      f+2     :     0.006048
      f-2     :     0.007056
      f+3     :     0.003645
      f-3     :     0.004055
 31 H s       :     0.816606  s :     0.816606
      pz      :     0.022305  p :     0.061040
      px      :     0.019801
      py      :     0.018934
 32 H s       :     0.825637  s :     0.825637
      pz      :     0.016308  p :     0.059700
      px      :     0.027608
      py      :     0.015784
 33 H s       :     0.838407  s :     0.838407
      pz      :     0.013645  p :     0.061215
      px      :     0.021664
      py      :     0.025906
 34 C s       :     2.829306  s :     2.829306
      pz      :     1.019207  p :     3.092775
      px      :     1.007914
      py      :     1.065654
      dz2     :     0.049657  d :     0.355853
      dxz     :     0.072100
      dyz     :     0.109524
      dx2y2   :     0.066901
      dxy     :     0.057670
      f0      :     0.007190  f :     0.041358
      f+1     :     0.006900
      f-1     :     0.003920
      f+2     :     0.007146
      f-2     :     0.006274
      f+3     :     0.006275
      f-3     :     0.003652
 35 H s       :     0.814396  s :     0.814396
      pz      :     0.020357  p :     0.062811
      px      :     0.014150
      py      :     0.028304
 36 H s       :     0.835509  s :     0.835509
      pz      :     0.020108  p :     0.060568
      px      :     0.014947
      py      :     0.025513
 37 H s       :     0.826451  s :     0.826451
      pz      :     0.016873  p :     0.059838
      px      :     0.026948
      py      :     0.016016


                      *****************************
                      * MAYER POPULATION ANALYSIS *
                      *****************************

  NA   - Mulliken gross atomic population
  ZA   - Total nuclear charge
  QA   - Mulliken gross atomic charge
  VA   - Mayer's total valence
  BVA  - Mayer's bonded valence
  FA   - Mayer's free valence

  ATOM       NA         ZA         QA         VA         BVA        FA
  0 C      5.9689     6.0000     0.0311     3.9168     3.9168    -0.0000
  1 C      5.9951     6.0000     0.0049     3.9403     3.9403    -0.0000
  2 N      7.1688     7.0000    -0.1688     2.9625     2.9625    -0.0000
  3 N      7.1687     7.0000    -0.1687     2.9627     2.9627    -0.0000
  4 N      7.1638     7.0000    -0.1638     2.9676     2.9676    -0.0000
  5 N      7.1634     7.0000    -0.1634     2.9684     2.9684    -0.0000
  6 C      6.3022     6.0000    -0.3022     3.8942     3.8942    -0.0000
  7 H      0.8626     1.0000     0.1374     0.9723     0.9723    -0.0000
  8 H      0.8691     1.0000     0.1309     0.9661     0.9661    -0.0000
  9 H      0.8950     1.0000     0.1050     0.9496     0.9496    -0.0000
 10 C      6.2964     6.0000    -0.2964     3.8477     3.8477    -0.0000
 11 H      0.8564     1.0000     0.1436     0.9760     0.9760    -0.0000
 12 H      0.8865     1.0000     0.1135     0.9599     0.9599    -0.0000
 13 H      0.8728     1.0000     0.1272     0.9653     0.9653    -0.0000
 14 C      6.3045     6.0000    -0.3045     3.8935     3.8935    -0.0000
 15 H      0.8617     1.0000     0.1383     0.9720     0.9720    -0.0000
 16 H      0.8690     1.0000     0.1310     0.9663     0.9663    -0.0000
 17 H      0.8950     1.0000     0.1050     0.9495     0.9495    -0.0000
 18 C      6.2970     6.0000    -0.2970     3.8487     3.8487    -0.0000
 19 H      0.8576     1.0000     0.1424     0.9765     0.9765    -0.0000
 20 H      0.8866     1.0000     0.1134     0.9600     0.9600    -0.0000
 21 H      0.8734     1.0000     0.1266     0.9656     0.9656    -0.0000
 22 C      6.2974     6.0000    -0.2974     3.8488     3.8488    -0.0000
 23 H      0.8576     1.0000     0.1424     0.9765     0.9765    -0.0000
 24 H      0.8862     1.0000     0.1138     0.9600     0.9600    -0.0000
 25 H      0.8735     1.0000     0.1265     0.9656     0.9656    -0.0000
 26 C      6.3040     6.0000    -0.3040     3.8939     3.8939    -0.0000
 27 H      0.8617     1.0000     0.1383     0.9719     0.9719    -0.0000
 28 H      0.8693     1.0000     0.1307     0.9665     0.9665    -0.0000
 29 H      0.8953     1.0000     0.1047     0.9498     0.9498    -0.0000
 30 C      6.3021     6.0000    -0.3021     3.8942     3.8942    -0.0000
 31 H      0.8629     1.0000     0.1371     0.9725     0.9725    -0.0000
 32 H      0.8692     1.0000     0.1308     0.9660     0.9660    -0.0000
 33 H      0.8945     1.0000     0.1055     0.9494     0.9494    -0.0000
 34 C      6.2957     6.0000    -0.2957     3.8479     3.8479    -0.0000
 35 H      0.8565     1.0000     0.1435     0.9760     0.9760    -0.0000
 36 H      0.8869     1.0000     0.1131     0.9600     0.9600    -0.0000
 37 H      0.8729     1.0000     0.1271     0.9654     0.9654    -0.0000

  Mayer bond orders larger than 0.100000
B(  0-C ,  1-C ) :   1.7599 B(  0-C ,  2-N ) :   1.0929 B(  0-C ,  3-N ) :   1.0933 
B(  1-C ,  4-N ) :   1.0978 B(  1-C ,  5-N ) :   1.0980 B(  2-N ,  6-C ) :   0.9721 
B(  2-N , 10-C ) :   0.9338 B(  3-N , 30-C ) :   0.9721 B(  3-N , 34-C ) :   0.9338 
B(  4-N , 14-C ) :   0.9724 B(  4-N , 18-C ) :   0.9354 B(  5-N , 22-C ) :   0.9356 
B(  5-N , 26-C ) :   0.9726 B(  6-C ,  7-H ) :   0.9718 B(  6-C ,  8-H ) :   0.9709 
B(  6-C ,  9-H ) :   0.9685 B( 10-C , 11-H ) :   0.9730 B( 10-C , 12-H ) :   0.9660 
B( 10-C , 13-H ) :   0.9741 B( 14-C , 15-H ) :   0.9714 B( 14-C , 16-H ) :   0.9712 
B( 14-C , 17-H ) :   0.9685 B( 18-C , 19-H ) :   0.9736 B( 18-C , 20-H ) :   0.9659 
B( 18-C , 21-H ) :   0.9741 B( 22-C , 23-H ) :   0.9735 B( 22-C , 24-H ) :   0.9659 
B( 22-C , 25-H ) :   0.9741 B( 26-C , 27-H ) :   0.9713 B( 26-C , 28-H ) :   0.9712 
B( 26-C , 29-H ) :   0.9685 B( 30-C , 31-H ) :   0.9719 B( 30-C , 32-H ) :   0.9709 
B( 30-C , 33-H ) :   0.9684 B( 34-C , 35-H ) :   0.9730 B( 34-C , 36-H ) :   0.9661 
B( 34-C , 37-H ) :   0.9741 

-------
TIMINGS
-------

Total SCF time: 0 days 0 hours 14 min 5 sec 

Total time                  ....     845.638 sec
Sum of individual times     ....     844.225 sec  ( 99.8%)

Fock matrix formation       ....     840.092 sec  ( 99.3%)
  XC integration            ....       7.943 sec  (  0.9% of F)
    Basis function eval.    ....       1.660 sec  ( 20.9% of XC)
    Density eval.           ....       2.276 sec  ( 28.7% of XC)
    XC-Functional eval.     ....       0.469 sec  (  5.9% of XC)
    XC-Potential eval.      ....       3.285 sec  ( 41.4% of XC)
Diagonalization             ....       0.194 sec  (  0.0%)
Density matrix formation    ....       0.028 sec  (  0.0%)
Population analysis         ....       0.133 sec  (  0.0%)
Initial guess               ....       0.193 sec  (  0.0%)
Orbital Transformation      ....       0.000 sec  (  0.0%)
Orbital Orthonormalization  ....       0.166 sec  (  0.0%)
DIIS solution               ....       0.055 sec  (  0.0%)
SOSCF solution              ....       0.762 sec  (  0.1%)
Grid generation             ....       2.767 sec  (  0.3%)


-------------------------------------------------------------------------------
                          DFT DISPERSION CORRECTION                            
                                                                               
                              DFTD3 V3.1  Rev 1                                
                              USING zero damping                               
-------------------------------------------------------------------------------
The omegaB97X-D3 functional is recognized. Fit by Chai et al.
Active option DFTDOPT                   ...         3   

molecular C6(AA) [au] = 10372.210805 


            DFT-D V3
 parameters
 s6 scaling factor         :     1.0000 
 rs6 scaling factor        :     1.2810 
 s8 scaling factor         :     1.0000 
 rs8 scaling factor        :     1.0940 
 Damping factor alpha6     :    14.0000 
 Damping factor alpha8     :    16.0000 
 ad hoc parameters k1-k3   :    16.0000     1.3333    -4.0000 

 Edisp/kcal,au: -13.220674481572  -0.021068483613 
 E6   /kcal   :  -6.180266751 
 E8   /kcal   :  -7.040407731 
 % E8         :  53.253014742 

-------------------------   ----------------
Dispersion correction           -0.021068484
-------------------------   ----------------


-------------------------   --------------------
FINAL SINGLE POINT ENERGY      -614.510903815922
-------------------------   --------------------

                                *** OPTIMIZATION RUN DONE ***

                            ***************************************
                            *     ORCA property calculations      *
                            ***************************************

                                    ---------------------
                                    Active property flags
                                    ---------------------
   (+) Dipole Moment


------------------------------------------------------------------------------
                       ORCA ELECTRIC PROPERTIES CALCULATION
------------------------------------------------------------------------------

Dipole Moment Calculation                       ... on
Quadrupole Moment Calculation                   ... off
Polarizability Calculation                      ... off
GBWName                                         ... tdae.gbw
Electron density file                           ... tdae.scfp
The origin for moment calculation is the CENTER OF MASS  = (-1.032070,  3.560510 -0.000183)

-------------
DIPOLE MOMENT
-------------
                                X             Y             Z
Electronic contribution:      0.00290       0.00011      -0.00403
Nuclear contribution   :     -0.00577      -0.00083       0.00370
                        -----------------------------------------
Total Dipole Moment    :     -0.00287      -0.00072      -0.00033
                        -----------------------------------------
Magnitude (a.u.)       :      0.00297
Magnitude (Debye)      :      0.00756



--------------------
Rotational spectrum 
--------------------
 
Rotational constants in cm-1:     0.025129     0.023452     0.015689 
Rotational constants in MHz :   753.338684   703.085228   470.330432 

 Dipole components along the rotational axes: 
x,y,z [a.u.] :    -0.002866    -0.000732    -0.000311 
x,y,z [Debye]:    -0.007286    -0.001860    -0.000790 

 
--------------------------------------------------------------------------
[[19163,1],1]: A high-performance Open MPI point-to-point messaging module
was unable to find any relevant network interfaces:

Module: OpenFabrics (openib)
  Host: compute-1-5

Another transport will be used instead, although this may result in
lower performance.

NOTE: You can disable this warning by setting the MCA parameter
btl_base_warn_component_unused to 0.
--------------------------------------------------------------------------
[compute-1-5.local:43791] 3 more processes have sent help message help-mpi-btl-base.txt / btl:no-nics
[compute-1-5.local:43791] Set MCA parameter "orte_base_help_aggregate" to 0 to see all help / error messages

Timings for individual modules:

Sum of individual times         ...    41859.175 sec (= 697.653 min)
GTO integral calculation        ...      109.025 sec (=   1.817 min)   0.3 %
SCF iterations                  ...    25678.221 sec (= 427.970 min)  61.3 %
SCF Gradient evaluation         ...    16059.959 sec (= 267.666 min)  38.4 %
Geometry relaxation             ...       11.970 sec (=   0.199 min)   0.0 %
                             ****ORCA TERMINATED NORMALLY****
TOTAL RUN TIME: 0 days 11 hours 37 minutes 50 seconds 520 msec
