Warning: no access to tty (Bad file descriptor).
Thus no job control in this shell.

                                 *****************
                                 * O   R   C   A *
                                 *****************

           --- An Ab Initio, DFT and Semiempirical electronic structure package ---

                  #######################################################
                  #                        -***-                        #
                  #          Department of theory and spectroscopy      #
                  #               Directorship: Frank Neese             #
                  #        Max Planck Institute fuer Kohlenforschung    #
                  #                Kaiser Wilhelm Platz 1               #
                  #                 D-45470 Muelheim/Ruhr               #
                  #                      Germany                        #
                  #                                                     #
                  #                  All rights reserved                #
                  #                        -***-                        #
                  #######################################################


                         Program Version 4.2.1 -  RELEASE  -


 With contributions from (in alphabetic order):
   Daniel Aravena         : Magnetic Suceptibility
   Michael Atanasov       : Ab Initio Ligand Field Theory (pilot matlab implementation)
   Alexander A. Auer      : GIAO ZORA, VPT2
   Ute Becker             : Parallelization
   Giovanni Bistoni       : ED, misc. LED, open-shell LED, HFLD
   Martin Brehm           : Molecular dynamics
   Dmytro Bykov           : SCF Hessian
   Vijay G. Chilkuri      : MRCI spin determinant printing, contributions to CSF-ICE
   Dipayan Datta          : RHF DLPNO-CCSD density
   Achintya Kumar Dutta   : EOM-CC, STEOM-CC
   Dmitry Ganyushin       : Spin-Orbit,Spin-Spin,Magnetic field MRCI
   Miquel Garcia          : C-PCM Hessian, Gaussian charge scheme
   Yang Guo               : DLPNO-NEVPT2, CIM, IAO-localization
   Andreas Hansen         : Spin unrestricted coupled pair/coupled cluster methods
   Benjamin Helmich-Paris : CASSCF linear response (MC-RPA)
   Lee Huntington         : MR-EOM, pCC
   Robert Izsak           : Overlap fitted RIJCOSX, COSX-SCS-MP3, EOM
   Christian Kollmar      : KDIIS, OOCD, Brueckner-CCSD(T), CCSD density
   Simone Kossmann        : Meta GGA functionals, TD-DFT gradient, OOMP2, MP2 Hessian
   Martin Krupicka        : AUTO-CI
   Lucas Lang             : DCDCAS
   Dagmar Lenk            : GEPOL surface, SMD
   Dimitrios Liakos       : Extrapolation schemes; Compound Job, initial MDCI parallelization
   Dimitrios Manganas     : Further ROCIS development; embedding schemes
   Dimitrios Pantazis     : SARC Basis sets
   Taras Petrenko         : DFT Hessian,TD-DFT gradient, ASA, ECA, R-Raman, ABS, FL, XAS/XES, NRVS
   Peter Pinski           : DLPNO-MP2, DLPNO-MP2 Gradient
   Christoph Reimann      : Effective Core Potentials
   Marius Retegan         : Local ZFS, SOC
   Christoph Riplinger    : Optimizer, TS searches, QM/MM, DLPNO-CCSD(T), (RO)-DLPNO pert. Triples
   Tobias Risthaus        : Range-separated hybrids, TD-DFT gradient, RPA, STAB
   Michael Roemelt        : Original ROCIS implementation
   Masaaki Saitow         : Open-shell DLPNO-CCSD energy and density
   Barbara Sandhoefer     : DKH picture change effects
   Avijit Sen             : IP-ROCIS
   Kantharuban Sivalingam : CASSCF convergence, NEVPT2, FIC-MRCI
   Bernardo de Souza      : ESD, SOC TD-DFT
   Georgi Stoychev        : AutoAux, RI-MP2 NMR
   Willem Van den Heuvel  : Paramagnetic NMR
   Boris Wezisla          : Elementary symmetry handling
   Frank Wennmohs         : Technical directorship


 We gratefully acknowledge several colleagues who have allowed us to
 interface, adapt or use parts of their codes:
   Stefan Grimme, W. Hujo, H. Kruse,             : VdW corrections, initial TS optimization,
                  C. Bannwarth                     DFT functionals, gCP, sTDA/sTD-DF
   Ed Valeev, F. Pavosevic, A. Kumar             : LibInt (2-el integral package), F12 methods
   Garnet Chan, S. Sharma, J. Yang, R. Olivares  : DMRG
   Ulf Ekstrom                                   : XCFun DFT Library
   Mihaly Kallay                                 : mrcc  (arbitrary order and MRCC methods)
   Andreas Klamt, Michael Diedenhofen            : otool_cosmo (COSMO solvation model)
   Jiri Pittner, Ondrej Demel                    : Mk-CCSD
   Frank Weinhold                                : gennbo (NPA and NBO analysis)
   Christopher J. Cramer and Donald G. Truhlar   : smd solvation model
   Lars Goerigk                                  : TD-DFT with DH, B97 family of functionals
   V. Asgeirsson, H. Jonsson                     : NEB implementation
   FAccTs GmbH                                   : IRC, NEB, NEB-TS, Multilevel, MM, QM/MM, CI optimization
   S Lehtola, MJT Oliveira, MAL Marques          : LibXC Library


 Your calculation uses the libint2 library for the computation of 2-el integrals
 For citations please refer to: http://libint.valeyev.net

 Your ORCA version has been built with support for libXC version: 4.2.3
 For citations please refer to: https://tddft.org/programs/libxc/

 This ORCA versions uses:
   CBLAS   interface :  Fast vector & matrix operations
   LAPACKE interface :  Fast linear algebra routines
   SCALAPACK package :  Parallel linear algebra routines


[file orca_tools/Tool-Scanner/qcscan1.cpp, line 102]: 
	 Unknown identifier in CPCM block line    7  : 
	 Last token : Â
[file orca_tools/Tool-Scanner/qcscan1.cpp, line 102]: 
	 Unknown identifier in CPCM block line    7  : 
	 Last token : Â
Warning: no access to tty (Bad file descriptor).
Thus no job control in this shell.

                                 *****************
                                 * O   R   C   A *
                                 *****************

           --- An Ab Initio, DFT and Semiempirical electronic structure package ---

                  #######################################################
                  #                        -***-                        #
                  #          Department of theory and spectroscopy      #
                  #               Directorship: Frank Neese             #
                  #        Max Planck Institute fuer Kohlenforschung    #
                  #                Kaiser Wilhelm Platz 1               #
                  #                 D-45470 Muelheim/Ruhr               #
                  #                      Germany                        #
                  #                                                     #
                  #                  All rights reserved                #
                  #                        -***-                        #
                  #######################################################


                         Program Version 4.2.1 -  RELEASE  -


 With contributions from (in alphabetic order):
   Daniel Aravena         : Magnetic Suceptibility
   Michael Atanasov       : Ab Initio Ligand Field Theory (pilot matlab implementation)
   Alexander A. Auer      : GIAO ZORA, VPT2
   Ute Becker             : Parallelization
   Giovanni Bistoni       : ED, misc. LED, open-shell LED, HFLD
   Martin Brehm           : Molecular dynamics
   Dmytro Bykov           : SCF Hessian
   Vijay G. Chilkuri      : MRCI spin determinant printing, contributions to CSF-ICE
   Dipayan Datta          : RHF DLPNO-CCSD density
   Achintya Kumar Dutta   : EOM-CC, STEOM-CC
   Dmitry Ganyushin       : Spin-Orbit,Spin-Spin,Magnetic field MRCI
   Miquel Garcia          : C-PCM Hessian, Gaussian charge scheme
   Yang Guo               : DLPNO-NEVPT2, CIM, IAO-localization
   Andreas Hansen         : Spin unrestricted coupled pair/coupled cluster methods
   Benjamin Helmich-Paris : CASSCF linear response (MC-RPA)
   Lee Huntington         : MR-EOM, pCC
   Robert Izsak           : Overlap fitted RIJCOSX, COSX-SCS-MP3, EOM
   Christian Kollmar      : KDIIS, OOCD, Brueckner-CCSD(T), CCSD density
   Simone Kossmann        : Meta GGA functionals, TD-DFT gradient, OOMP2, MP2 Hessian
   Martin Krupicka        : AUTO-CI
   Lucas Lang             : DCDCAS
   Dagmar Lenk            : GEPOL surface, SMD
   Dimitrios Liakos       : Extrapolation schemes; Compound Job, initial MDCI parallelization
   Dimitrios Manganas     : Further ROCIS development; embedding schemes
   Dimitrios Pantazis     : SARC Basis sets
   Taras Petrenko         : DFT Hessian,TD-DFT gradient, ASA, ECA, R-Raman, ABS, FL, XAS/XES, NRVS
   Peter Pinski           : DLPNO-MP2, DLPNO-MP2 Gradient
   Christoph Reimann      : Effective Core Potentials
   Marius Retegan         : Local ZFS, SOC
   Christoph Riplinger    : Optimizer, TS searches, QM/MM, DLPNO-CCSD(T), (RO)-DLPNO pert. Triples
   Tobias Risthaus        : Range-separated hybrids, TD-DFT gradient, RPA, STAB
   Michael Roemelt        : Original ROCIS implementation
   Masaaki Saitow         : Open-shell DLPNO-CCSD energy and density
   Barbara Sandhoefer     : DKH picture change effects
   Avijit Sen             : IP-ROCIS
   Kantharuban Sivalingam : CASSCF convergence, NEVPT2, FIC-MRCI
   Bernardo de Souza      : ESD, SOC TD-DFT
   Georgi Stoychev        : AutoAux, RI-MP2 NMR
   Willem Van den Heuvel  : Paramagnetic NMR
   Boris Wezisla          : Elementary symmetry handling
   Frank Wennmohs         : Technical directorship


 We gratefully acknowledge several colleagues who have allowed us to
 interface, adapt or use parts of their codes:
   Stefan Grimme, W. Hujo, H. Kruse,             : VdW corrections, initial TS optimization,
                  C. Bannwarth                     DFT functionals, gCP, sTDA/sTD-DF
   Ed Valeev, F. Pavosevic, A. Kumar             : LibInt (2-el integral package), F12 methods
   Garnet Chan, S. Sharma, J. Yang, R. Olivares  : DMRG
   Ulf Ekstrom                                   : XCFun DFT Library
   Mihaly Kallay                                 : mrcc  (arbitrary order and MRCC methods)
   Andreas Klamt, Michael Diedenhofen            : otool_cosmo (COSMO solvation model)
   Jiri Pittner, Ondrej Demel                    : Mk-CCSD
   Frank Weinhold                                : gennbo (NPA and NBO analysis)
   Christopher J. Cramer and Donald G. Truhlar   : smd solvation model
   Lars Goerigk                                  : TD-DFT with DH, B97 family of functionals
   V. Asgeirsson, H. Jonsson                     : NEB implementation
   FAccTs GmbH                                   : IRC, NEB, NEB-TS, Multilevel, MM, QM/MM, CI optimization
   S Lehtola, MJT Oliveira, MAL Marques          : LibXC Library


 Your calculation uses the libint2 library for the computation of 2-el integrals
 For citations please refer to: http://libint.valeyev.net

 Your ORCA version has been built with support for libXC version: 4.2.3
 For citations please refer to: https://tddft.org/programs/libxc/

 This ORCA versions uses:
   CBLAS   interface :  Fast vector & matrix operations
   LAPACKE interface :  Fast linear algebra routines
   SCALAPACK package :  Parallel linear algebra routines


[file orca_tools/Tool-Scanner/qcscan1.cpp, line 102]: 
	 Unknown identifier in CPCM block line    7  : 
	 Last token : Â
[file orca_tools/Tool-Scanner/qcscan1.cpp, line 102]: 
	 Unknown identifier in CPCM block line    7  : 
	 Last token : Â
Warning: no access to tty (Bad file descriptor).
Thus no job control in this shell.

                                 *****************
                                 * O   R   C   A *
                                 *****************

           --- An Ab Initio, DFT and Semiempirical electronic structure package ---

                  #######################################################
                  #                        -***-                        #
                  #          Department of theory and spectroscopy      #
                  #               Directorship: Frank Neese             #
                  #        Max Planck Institute fuer Kohlenforschung    #
                  #                Kaiser Wilhelm Platz 1               #
                  #                 D-45470 Muelheim/Ruhr               #
                  #                      Germany                        #
                  #                                                     #
                  #                  All rights reserved                #
                  #                        -***-                        #
                  #######################################################


                         Program Version 4.2.1 -  RELEASE  -


 With contributions from (in alphabetic order):
   Daniel Aravena         : Magnetic Suceptibility
   Michael Atanasov       : Ab Initio Ligand Field Theory (pilot matlab implementation)
   Alexander A. Auer      : GIAO ZORA, VPT2
   Ute Becker             : Parallelization
   Giovanni Bistoni       : ED, misc. LED, open-shell LED, HFLD
   Martin Brehm           : Molecular dynamics
   Dmytro Bykov           : SCF Hessian
   Vijay G. Chilkuri      : MRCI spin determinant printing, contributions to CSF-ICE
   Dipayan Datta          : RHF DLPNO-CCSD density
   Achintya Kumar Dutta   : EOM-CC, STEOM-CC
   Dmitry Ganyushin       : Spin-Orbit,Spin-Spin,Magnetic field MRCI
   Miquel Garcia          : C-PCM Hessian, Gaussian charge scheme
   Yang Guo               : DLPNO-NEVPT2, CIM, IAO-localization
   Andreas Hansen         : Spin unrestricted coupled pair/coupled cluster methods
   Benjamin Helmich-Paris : CASSCF linear response (MC-RPA)
   Lee Huntington         : MR-EOM, pCC
   Robert Izsak           : Overlap fitted RIJCOSX, COSX-SCS-MP3, EOM
   Christian Kollmar      : KDIIS, OOCD, Brueckner-CCSD(T), CCSD density
   Simone Kossmann        : Meta GGA functionals, TD-DFT gradient, OOMP2, MP2 Hessian
   Martin Krupicka        : AUTO-CI
   Lucas Lang             : DCDCAS
   Dagmar Lenk            : GEPOL surface, SMD
   Dimitrios Liakos       : Extrapolation schemes; Compound Job, initial MDCI parallelization
   Dimitrios Manganas     : Further ROCIS development; embedding schemes
   Dimitrios Pantazis     : SARC Basis sets
   Taras Petrenko         : DFT Hessian,TD-DFT gradient, ASA, ECA, R-Raman, ABS, FL, XAS/XES, NRVS
   Peter Pinski           : DLPNO-MP2, DLPNO-MP2 Gradient
   Christoph Reimann      : Effective Core Potentials
   Marius Retegan         : Local ZFS, SOC
   Christoph Riplinger    : Optimizer, TS searches, QM/MM, DLPNO-CCSD(T), (RO)-DLPNO pert. Triples
   Tobias Risthaus        : Range-separated hybrids, TD-DFT gradient, RPA, STAB
   Michael Roemelt        : Original ROCIS implementation
   Masaaki Saitow         : Open-shell DLPNO-CCSD energy and density
   Barbara Sandhoefer     : DKH picture change effects
   Avijit Sen             : IP-ROCIS
   Kantharuban Sivalingam : CASSCF convergence, NEVPT2, FIC-MRCI
   Bernardo de Souza      : ESD, SOC TD-DFT
   Georgi Stoychev        : AutoAux, RI-MP2 NMR
   Willem Van den Heuvel  : Paramagnetic NMR
   Boris Wezisla          : Elementary symmetry handling
   Frank Wennmohs         : Technical directorship


 We gratefully acknowledge several colleagues who have allowed us to
 interface, adapt or use parts of their codes:
   Stefan Grimme, W. Hujo, H. Kruse,             : VdW corrections, initial TS optimization,
                  C. Bannwarth                     DFT functionals, gCP, sTDA/sTD-DF
   Ed Valeev, F. Pavosevic, A. Kumar             : LibInt (2-el integral package), F12 methods
   Garnet Chan, S. Sharma, J. Yang, R. Olivares  : DMRG
   Ulf Ekstrom                                   : XCFun DFT Library
   Mihaly Kallay                                 : mrcc  (arbitrary order and MRCC methods)
   Andreas Klamt, Michael Diedenhofen            : otool_cosmo (COSMO solvation model)
   Jiri Pittner, Ondrej Demel                    : Mk-CCSD
   Frank Weinhold                                : gennbo (NPA and NBO analysis)
   Christopher J. Cramer and Donald G. Truhlar   : smd solvation model
   Lars Goerigk                                  : TD-DFT with DH, B97 family of functionals
   V. Asgeirsson, H. Jonsson                     : NEB implementation
   FAccTs GmbH                                   : IRC, NEB, NEB-TS, Multilevel, MM, QM/MM, CI optimization
   S Lehtola, MJT Oliveira, MAL Marques          : LibXC Library


 Your calculation uses the libint2 library for the computation of 2-el integrals
 For citations please refer to: http://libint.valeyev.net

 Your ORCA version has been built with support for libXC version: 4.2.3
 For citations please refer to: https://tddft.org/programs/libxc/

 This ORCA versions uses:
   CBLAS   interface :  Fast vector & matrix operations
   LAPACKE interface :  Fast linear algebra routines
   SCALAPACK package :  Parallel linear algebra routines


Your calculation utilizes the atom-pairwise dispersion correction
with the zero-damping scheme (D30)
Cite in your paper:
S.Grimme, J.Antony, S.Ehrlich and H.Krieg, J.Chem.Phys., 132, (2010), 154104 
   

XCFun DFT library Copyright 2009-2010 Ulf Ekstrom and contributors.
See http://admol.org/xcfun for more information. This is free soft-
ware; see the source code for copying conditions. There is ABSOLUTELY
NO WARRANTY; not even for MERCHANTABILITY or FITNESS FOR A PARTICULAR
PURPOSE. For details see the documentation. Scientific users of this 
library should cite U. Ekstrom, L. Visscher, R. Bast, A. J. Thorvald-
sen and K. Ruud; J.Chem.Theor.Comp. 2010, DOI: 10.1021/ct100117s
XCFun Version 0.99 
----- Orbital basis set information -----
Your calculation utilizes the basis: def2-TZVP
   F. Weigend and R. Ahlrichs, Phys. Chem. Chem. Phys. 7, 3297 (2005).

----- AuxJ basis set information -----
Your calculation utilizes the auxiliary basis: def2/J
   F. Weigend, Phys. Chem. Chem. Phys. 8, 1057 (2006).

================================================================================
                                        WARNINGS
                       Please study these warnings very carefully!
================================================================================


WARNING: Geometry Optimization
  ===> : Switching off AutoStart
         For restart on a previous wavefunction, please use MOREAD

INFO   : the flag for use of LIBINT has been found!

================================================================================
                                       INPUT FILE
================================================================================
NAME = Pentacine.inp
|  1> # avogadro generated ORCA input file 
|  2> # Basic Mode
|  3> # 
|  4> ! wB97X-D3 OPT def2-TZVP def2/J CPCM
|  5> %cpcm
|  6>   epsilon 3
|  7> end
|  8> %pal
|  9>  nprocs 4
| 10> end 
| 11> 
| 12> * xyz 0 1
| 13>    C       -4.85490        2.68203        0.00000
| 14>    C       -4.84715        1.28595        0.00000
| 15>    C       -3.64970        3.39253        0.00000
| 16>    H       -5.79859        3.21252        0.00000
| 17>    C       -3.63540        0.59124        0.00000
| 18>    H       -5.78257        0.74119        0.00000
| 19>    C       -2.42237        2.70676        0.00000
| 20>    H       -3.67978        4.47498        0.00000
| 21>    C       -2.41841        1.29176        0.00000
| 22>    H       -3.65085       -0.49136        0.00000
| 23>    C       -1.20316        3.40667        0.00000
| 24>    C       -1.20041        0.59930        0.00000
| 25>    C        0.01924        2.71066        0.00000
| 26>    H       -1.20697        4.49021        0.00000
| 27>    C        0.01610        1.29687        0.00000
| 28>    H       -1.19942       -0.48449        0.00000
| 29>    C        1.24445        3.40249        0.00000
| 30>    C        1.23000        0.59697        0.00000
| 31>    C        2.46279        2.69840        0.00000
| 32>    H        1.24968        4.48634        0.00000
| 33>    C        2.45110        1.28460        0.00000
| 34>    H        1.22452       -0.48658        0.00000
| 35>    C        3.69198        3.38153        0.00000
| 36>    C        3.66008        0.57366        0.00000
| 37>    C        4.90369        2.66839        0.00000
| 38>    H        3.70706        4.46536        0.00000
| 39>    C        4.88466        1.25335        0.00000
| 40>    H        3.64748       -0.51017        0.00000
| 41>    C        6.13762        3.34137        0.00000
| 42>    C        6.09448        0.53977        0.00000
| 43>    C        7.33510        2.61794        0.00000
| 44>    H        6.17868        4.42313        0.00000
| 45>    C        7.31307        1.22198        0.00000
| 46>    H        6.09848       -0.54334        0.00000
| 47>    H        8.28385        3.13896        0.00000
| 48>    H        8.24278        0.66739        0.00000
| 49> *
| 50> 
| 51> 
| 52>                          ****END OF INPUT****
================================================================================

                       *****************************
                       * Geometry Optimization Run *
                       *****************************

Geometry optimization settings:
Update method            Update   .... BFGS
Choice of coordinates    CoordSys .... Z-matrix Internals
Initial Hessian          InHess   .... Almoef's Model

Convergence Tolerances:
Energy Change            TolE     ....  5.0000e-06 Eh
Max. Gradient            TolMAXG  ....  3.0000e-04 Eh/bohr
RMS Gradient             TolRMSG  ....  1.0000e-04 Eh/bohr
Max. Displacement        TolMAXD  ....  4.0000e-03 bohr
RMS Displacement         TolRMSD  ....  2.0000e-03 bohr
Strict Convergence                ....  False
------------------------------------------------------------------------------
                        ORCA OPTIMIZATION COORDINATE SETUP
------------------------------------------------------------------------------

The optimization will be done in new redundant internal coordinates
Making redundant internal coordinates   ...  (new redundants) done
Evaluating the initial hessian          ...  (Almloef) done
Evaluating the coordinates              ...  done
Calculating the B-matrix                .... done
Calculating the G-matrix                .... done
Diagonalizing the G-matrix              .... done
Small eigenvalue found = 9.320e-03
Small eigenvalue found = 1.816e-02
The first mode is                       ....  108
The number of degrees of freedom        ....  102

    -----------------------------------------------------------------
                    Redundant Internal Coordinates


    -----------------------------------------------------------------
         Definition                    Initial Value    Approx d2E/dq
    -----------------------------------------------------------------
      1. B(C   1,C   0)                  1.3961         0.610948   
      2. B(C   2,C   0)                  1.3990         0.604384   
      3. B(H   3,C   0)                  1.0826         0.370056   
      4. B(C   4,C   1)                  1.3968         0.609454   
      5. B(H   5,C   1)                  1.0825         0.370180   
      6. B(C   6,C   2)                  1.4059         0.589297   
      7. B(H   7,C   2)                  1.0829         0.369660   
      8. B(C   8,C   6)                  1.4150         0.569959   
      9. B(C   8,C   4)                  1.4042         0.593027   
     10. B(H   9,C   4)                  1.0827         0.369874   
     11. B(C  10,C   6)                  1.4058         0.589507   
     12. B(C  11,C   8)                  1.4011         0.599876   
     13. B(C  12,C  10)                  1.4067         0.587704   
     14. B(H  13,C  10)                  1.0835         0.368739   
     15. B(C  14,C  11)                  1.4023         0.597150   
     16. B(C  14,C  12)                  1.4138         0.572503   
     17. B(H  15,C  11)                  1.0838         0.368409   
     18. B(C  16,C  12)                  1.4070         0.586879   
     19. B(C  17,C  14)                  1.4012         0.599570   
     20. B(C  18,C  16)                  1.4072         0.586629   
     21. B(H  19,C  16)                  1.0839         0.368311   
     22. B(C  20,C  18)                  1.4138         0.572387   
     23. B(C  20,C  17)                  1.4014         0.599172   
     24. B(H  21,C  17)                  1.0836         0.368716   
     25. B(C  22,C  18)                  1.4063         0.588562   
     26. B(C  23,C  20)                  1.4025         0.596706   
     27. B(C  24,C  22)                  1.4060         0.589151   
     28. B(H  25,C  22)                  1.0839         0.368213   
     29. B(C  26,C  24)                  1.4152         0.569619   
     30. B(C  26,C  23)                  1.4006         0.601018   
     31. B(H  27,C  23)                  1.0839         0.368256   
     32. B(C  28,C  24)                  1.4055         0.590171   
     33. B(C  29,C  26)                  1.4046         0.592200   
     34. B(C  30,C  28)                  1.3990         0.604391   
     35. B(H  31,C  28)                  1.0825         0.370107   
     36. B(C  32,C  30)                  1.3961         0.610875   
     37. B(C  32,C  29)                  1.3966         0.609926   
     38. B(H  33,C  29)                  1.0831         0.369321   
     39. B(H  34,C  30)                  1.0824         0.370296   
     40. B(H  35,C  32)                  1.0826         0.370081   
     41. A(C   1,C   0,H   3)          119.6603         0.353661   
     42. A(C   1,C   0,C   2)          120.2025         0.430939   
     43. A(C   2,C   0,H   3)          120.1372         0.353014   
     44. A(C   0,C   1,C   4)          120.1442         0.431586   
     45. A(C   4,C   1,H   5)          119.9587         0.353534   
     46. A(C   0,C   1,H   5)          119.8972         0.353681   
     47. A(C   0,C   2,C   6)          120.2852         0.428158   
     48. A(C   6,C   2,H   7)          120.7860         0.351444   
     49. A(C   0,C   2,H   7)          118.9288         0.352950   
     50. A(C   8,C   4,H   9)          120.7431         0.351854   
     51. A(C   1,C   4,C   8)          120.2484         0.429286   
     52. A(C   1,C   4,H   9)          119.0085         0.353484   
     53. A(C   2,C   6,C  10)          120.9470         0.426250   
     54. A(C   2,C   6,C   8)          119.3546         0.423686   
     55. A(C   8,C   6,C  10)          119.6984         0.423713   
     56. A(C   4,C   8,C   6)          119.7651         0.424164   
     57. A(C   6,C   8,C  11)          119.7795         0.425037   
     58. A(C   4,C   8,C  11)          120.4554         0.428068   
     59. A(C   6,C  10,C  12)          120.4849         0.426044   
     60. A(C  12,C  10,H  13)          119.8578         0.351136   
     61. A(C   6,C  10,H  13)          119.6573         0.351317   
     62. A(C  14,C  11,H  15)          119.7784         0.352030   
     63. A(C   8,C  11,H  15)          119.6715         0.352301   
     64. A(C   8,C  11,C  14)          120.5500         0.428600   
     65. A(C  14,C  12,C  16)          119.5790         0.423712   
     66. A(C  10,C  12,C  16)          120.8919         0.425703   
     67. A(C  10,C  12,C  14)          119.5291         0.423818   
     68. A(C  12,C  14,C  17)          119.8393         0.425337   
     69. A(C  11,C  14,C  17)          120.2027         0.428561   
     70. A(C  11,C  14,C  12)          119.9580         0.425029   
     71. A(C  12,C  16,C  18)          120.5242         0.425564   
     72. A(C  18,C  16,H  19)          119.7475         0.350958   
     73. A(C  12,C  16,H  19)          119.7283         0.350983   
     74. A(C  20,C  17,H  21)          119.6746         0.352281   
     75. A(C  14,C  17,H  21)          119.6768         0.352321   
     76. A(C  14,C  17,C  20)          120.6486         0.428821   
     77. A(C  20,C  18,C  22)          119.5371         0.423914   
     78. A(C  16,C  18,C  22)          120.9126         0.425782   
     79. A(C  16,C  18,C  20)          119.5503         0.423664   
     80. A(C  18,C  20,C  23)          119.9839         0.424957   
     81. A(C  17,C  20,C  23)          120.1575         0.428452   
     82. A(C  17,C  20,C  18)          119.8586         0.425271   
     83. A(C  24,C  22,H  25)          119.6814         0.351197   
     84. A(C  18,C  22,H  25)          119.8605         0.351138   
     85. A(C  18,C  22,C  24)          120.4581         0.426109   
     86. A(C  26,C  23,H  27)          119.6981         0.352390   
     87. A(C  20,C  23,H  27)          119.7916         0.351961   
     88. A(C  20,C  23,C  26)          120.5104         0.428689   
     89. A(C  26,C  24,C  28)          119.3783         0.423753   
     90. A(C  22,C  24,C  28)          120.9136         0.426317   
     91. A(C  22,C  24,C  26)          119.7080         0.423622   
     92. A(C  24,C  26,C  29)          119.7626         0.424013   
     93. A(C  23,C  26,C  29)          120.4349         0.428107   
     94. A(C  23,C  26,C  24)          119.8025         0.425136   
     95. A(C  30,C  28,H  31)          118.9636         0.353023   
     96. A(C  24,C  28,H  31)          120.7816         0.351604   
     97. A(C  24,C  28,C  30)          120.2548         0.428273   
     98. A(C  32,C  29,H  33)          119.0301         0.353441   
     99. A(C  26,C  29,H  33)          120.7447         0.351682   
    100. A(C  26,C  29,C  32)          120.2253         0.429238   
    101. A(C  28,C  30,H  34)          120.0887         0.353054   
    102. A(C  28,C  30,C  32)          120.2332         0.430931   
    103. A(C  32,C  30,H  34)          119.6782         0.353692   
    104. A(C  29,C  32,C  30)          120.1458         0.431637   
    105. A(C  30,C  32,H  35)          119.9128         0.353657   
    106. A(C  29,C  32,H  35)          119.9415         0.353564   
    107. D(C   4,C   1,C   0,C   2)      0.0000         0.025783   
    108. D(C   4,C   1,C   0,H   3)    180.0000         0.025783   
    109. D(H   5,C   1,C   0,C   2)    180.0000         0.025783   
    110. D(H   5,C   1,C   0,H   3)      0.0000         0.025783   
    111. D(H   7,C   2,C   0,C   1)    180.0000         0.025202   
    112. D(C   6,C   2,C   0,H   3)    180.0000         0.025202   
    113. D(C   6,C   2,C   0,C   1)      0.0000         0.025202   
    114. D(H   7,C   2,C   0,H   3)      0.0000         0.025202   
    115. D(C   8,C   4,C   1,H   5)    180.0000         0.025650   
    116. D(H   9,C   4,C   1,H   5)      0.0000         0.025650   
    117. D(C   8,C   4,C   1,C   0)      0.0000         0.025650   
    118. D(H   9,C   4,C   1,C   0)    180.0000         0.025650   
    119. D(C  10,C   6,C   2,C   0)    180.0000         0.023895   
    120. D(C   8,C   6,C   2,C   0)      0.0000         0.023895   
    121. D(C   8,C   6,C   2,H   7)    180.0000         0.023895   
    122. D(C  10,C   6,C   2,H   7)      0.0000         0.023895   
    123. D(C  11,C   8,C   6,C  10)      0.0000         0.022284   
    124. D(C   4,C   8,C   6,C  10)    180.0000         0.022284   
    125. D(C  11,C   8,C   4,H   9)      0.0000         0.024214   
    126. D(C  11,C   8,C   4,C   1)    180.0000         0.024214   
    127. D(C   6,C   8,C   4,H   9)    180.0000         0.024214   
    128. D(C  11,C   8,C   6,C   2)    180.0000         0.022284   
    129. D(C   6,C   8,C   4,C   1)      0.0000         0.024214   
    130. D(C   4,C   8,C   6,C   2)      0.0000         0.022284   
    131. D(H  13,C  10,C   6,C   8)    180.0000         0.023913   
    132. D(H  13,C  10,C   6,C   2)      0.0000         0.023913   
    133. D(C  12,C  10,C   6,C   8)      0.0000         0.023913   
    134. D(C  12,C  10,C   6,C   2)    180.0000         0.023913   
    135. D(H  15,C  11,C   8,C   4)      0.0000         0.024807   
    136. D(C  14,C  11,C   8,C   6)      0.0000         0.024807   
    137. D(C  14,C  11,C   8,C   4)    180.0000         0.024807   
    138. D(H  15,C  11,C   8,C   6)    180.0000         0.024807   
    139. D(C  16,C  12,C  10,H  13)      0.0000         0.023760   
    140. D(C  16,C  12,C  10,C   6)    180.0000         0.023760   
    141. D(C  14,C  12,C  10,H  13)    180.0000         0.023760   
    142. D(C  14,C  12,C  10,C   6)      0.0000         0.023760   
    143. D(C  17,C  14,C  12,C  16)      0.0000         0.022492   
    144. D(C  11,C  14,C  12,C  16)    180.0000         0.022492   
    145. D(C  11,C  14,C  12,C  10)      0.0000         0.022492   
    146. D(C  17,C  14,C  11,H  15)      0.0000         0.024570   
    147. D(C  17,C  14,C  11,C   8)    180.0000         0.024570   
    148. D(C  17,C  14,C  12,C  10)    180.0000         0.022492   
    149. D(C  12,C  14,C  11,H  15)    180.0000         0.024570   
    150. D(C  12,C  14,C  11,C   8)      0.0000         0.024570   
    151. D(H  19,C  16,C  12,C  14)    180.0000         0.023690   
    152. D(H  19,C  16,C  12,C  10)      0.0000         0.023690   
    153. D(C  18,C  16,C  12,C  14)      0.0000         0.023690   
    154. D(C  18,C  16,C  12,C  10)    180.0000         0.023690   
    155. D(H  21,C  17,C  14,C  12)    180.0000         0.024780   
    156. D(H  21,C  17,C  14,C  11)      0.0000         0.024780   
    157. D(C  20,C  17,C  14,C  12)      0.0000         0.024780   
    158. D(C  20,C  17,C  14,C  11)    180.0000         0.024780   
    159. D(C  22,C  18,C  16,H  19)      0.0000         0.023669   
    160. D(C  22,C  18,C  16,C  12)    180.0000         0.023669   
    161. D(C  20,C  18,C  16,H  19)    180.0000         0.023669   
    162. D(C  20,C  18,C  16,C  12)      0.0000         0.023669   
    163. D(C  17,C  20,C  18,C  22)    180.0000         0.022482   
    164. D(C  17,C  20,C  18,C  16)      0.0000         0.022482   
    165. D(C  23,C  20,C  17,H  21)      0.0000         0.024745   
    166. D(C  23,C  20,C  17,C  14)    180.0000         0.024745   
    167. D(C  18,C  20,C  17,H  21)    180.0000         0.024745   
    168. D(C  23,C  20,C  18,C  16)    180.0000         0.022482   
    169. D(C  18,C  20,C  17,C  14)      0.0000         0.024745   
    170. D(C  23,C  20,C  18,C  22)      0.0000         0.022482   
    171. D(H  25,C  22,C  18,C  20)    180.0000         0.023833   
    172. D(H  25,C  22,C  18,C  16)      0.0000         0.023833   
    173. D(C  24,C  22,C  18,C  20)      0.0000         0.023833   
    174. D(C  24,C  22,C  18,C  16)    180.0000         0.023833   
    175. D(H  27,C  23,C  20,C  18)    180.0000         0.024531   
    176. D(H  27,C  23,C  20,C  17)      0.0000         0.024531   
    177. D(C  26,C  23,C  20,C  18)      0.0000         0.024531   
    178. D(C  26,C  23,C  20,C  17)    180.0000         0.024531   
    179. D(C  28,C  24,C  22,H  25)      0.0000         0.023883   
    180. D(C  28,C  24,C  22,C  18)    180.0000         0.023883   
    181. D(C  26,C  24,C  22,H  25)    180.0000         0.023883   
    182. D(C  26,C  24,C  22,C  18)      0.0000         0.023883   
    183. D(C  29,C  26,C  24,C  28)      0.0000         0.022256   
    184. D(C  29,C  26,C  24,C  22)    180.0000         0.022256   
    185. D(C  23,C  26,C  24,C  28)    180.0000         0.022256   
    186. D(C  23,C  26,C  24,C  22)      0.0000         0.022256   
    187. D(C  29,C  26,C  23,H  27)      0.0000         0.024906   
    188. D(C  29,C  26,C  23,C  20)    180.0000         0.024906   
    189. D(C  24,C  26,C  23,H  27)    180.0000         0.024906   
    190. D(C  24,C  26,C  23,C  20)      0.0000         0.024906   
    191. D(H  31,C  28,C  24,C  26)    180.0000         0.023970   
    192. D(H  31,C  28,C  24,C  22)      0.0000         0.023970   
    193. D(C  30,C  28,C  24,C  26)      0.0000         0.023970   
    194. D(C  30,C  28,C  24,C  22)    180.0000         0.023970   
    195. D(H  33,C  29,C  26,C  24)    180.0000         0.024143   
    196. D(H  33,C  29,C  26,C  23)      0.0000         0.024143   
    197. D(C  32,C  29,C  26,C  24)      0.0000         0.024143   
    198. D(C  32,C  29,C  26,C  23)    180.0000         0.024143   
    199. D(H  34,C  30,C  28,H  31)      0.0000         0.025202   
    200. D(H  34,C  30,C  28,C  24)    180.0000         0.025202   
    201. D(C  32,C  30,C  28,H  31)    180.0000         0.025202   
    202. D(C  32,C  30,C  28,C  24)      0.0000         0.025202   
    203. D(H  35,C  32,C  30,H  34)      0.0000         0.025777   
    204. D(H  35,C  32,C  30,C  28)    180.0000         0.025777   
    205. D(C  29,C  32,C  30,H  34)    180.0000         0.025777   
    206. D(C  29,C  32,C  30,C  28)      0.0000         0.025777   
    207. D(H  35,C  32,C  29,H  33)      0.0000         0.025692   
    208. D(H  35,C  32,C  29,C  26)    180.0000         0.025692   
    209. D(C  30,C  32,C  29,H  33)    180.0000         0.025692   
    210. D(C  30,C  32,C  29,C  26)      0.0000         0.025692   
    -----------------------------------------------------------------

Number of atoms                         .... 36
Number of degrees of freedom            .... 210

         *************************************************************
         *                GEOMETRY OPTIMIZATION CYCLE   1            *
         *************************************************************
---------------------------------
CARTESIAN COORDINATES (ANGSTROEM)
---------------------------------
  C     -4.854900    2.682030    0.000000
  C     -4.847150    1.285950    0.000000
  C     -3.649700    3.392530    0.000000
  H     -5.798590    3.212520    0.000000
  C     -3.635400    0.591240    0.000000
  H     -5.782570    0.741190    0.000000
  C     -2.422370    2.706760    0.000000
  H     -3.679780    4.474980    0.000000
  C     -2.418410    1.291760    0.000000
  H     -3.650850   -0.491360    0.000000
  C     -1.203160    3.406670    0.000000
  C     -1.200410    0.599300    0.000000
  C      0.019240    2.710660    0.000000
  H     -1.206970    4.490210    0.000000
  C      0.016100    1.296870    0.000000
  H     -1.199420   -0.484490    0.000000
  C      1.244450    3.402490    0.000000
  C      1.230000    0.596970    0.000000
  C      2.462790    2.698400    0.000000
  H      1.249680    4.486340    0.000000
  C      2.451100    1.284600    0.000000
  H      1.224520   -0.486580    0.000000
  C      3.691980    3.381530    0.000000
  C      3.660080    0.573660    0.000000
  C      4.903690    2.668390    0.000000
  H      3.707060    4.465360    0.000000
  C      4.884660    1.253350    0.000000
  H      3.647480   -0.510170    0.000000
  C      6.137620    3.341370    0.000000
  C      6.094480    0.539770    0.000000
  C      7.335100    2.617940    0.000000
  H      6.178680    4.423130    0.000000
  C      7.313070    1.221980    0.000000
  H      6.098480   -0.543340    0.000000
  H      8.283850    3.138960    0.000000
  H      8.242780    0.667390    0.000000

----------------------------
CARTESIAN COORDINATES (A.U.)
----------------------------
  NO LB      ZA    FRAG     MASS         X           Y           Z
   0 C     6.0000    0    12.011   -9.174431    5.068302    0.000000
   1 C     6.0000    0    12.011   -9.159786    2.430093    0.000000
   2 C     6.0000    0    12.011   -6.896933    6.410953    0.000000
   3 H     1.0000    0     1.008  -10.957747    6.070783    0.000000
   4 C     6.0000    0    12.011   -6.869910    1.117282    0.000000
   5 H     1.0000    0     1.008  -10.927474    1.400646    0.000000
   6 C     6.0000    0    12.011   -4.577616    5.115035    0.000000
   7 H     1.0000    0     1.008   -6.953776    8.456487    0.000000
   8 C     6.0000    0    12.011   -4.570133    2.441073    0.000000
   9 H     1.0000    0     1.008   -6.899107   -0.928536    0.000000
  10 C     6.0000    0    12.011   -2.273643    6.437673    0.000000
  11 C     6.0000    0    12.011   -2.268446    1.132513    0.000000
  12 C     6.0000    0    12.011    0.036358    5.122405    0.000000
  13 H     1.0000    0     1.008   -2.280843    8.485267    0.000000
  14 C     6.0000    0    12.011    0.030425    2.450729    0.000000
  15 H     1.0000    0     1.008   -2.266575   -0.915553    0.000000
  16 C     6.0000    0    12.011    2.351670    6.429774    0.000000
  17 C     6.0000    0    12.011    2.324363    1.128110    0.000000
  18 C     6.0000    0    12.011    4.653999    5.099237    0.000000
  19 H     1.0000    0     1.008    2.361553    8.477954    0.000000
  20 C     6.0000    0    12.011    4.631908    2.427542    0.000000
  21 H     1.0000    0     1.008    2.314007   -0.919503    0.000000
  22 C     6.0000    0    12.011    6.976831    6.390166    0.000000
  23 C     6.0000    0    12.011    6.916549    1.084060    0.000000
  24 C     6.0000    0    12.011    9.266631    5.042526    0.000000
  25 H     1.0000    0     1.008    7.005328    8.438307    0.000000
  26 C     6.0000    0    12.011    9.230670    2.368488    0.000000
  27 H     1.0000    0     1.008    6.892738   -0.964082    0.000000
  28 C     6.0000    0    12.011   11.598421    6.314274    0.000000
  29 C     6.0000    0    12.011   11.516898    1.020017    0.000000
  30 C     6.0000    0    12.011   13.861330    4.947190    0.000000
  31 H     1.0000    0     1.008   11.676013    8.358504    0.000000
  32 C     6.0000    0    12.011   13.819699    2.309208    0.000000
  33 H     1.0000    0     1.008   11.524457   -1.026764    0.000000
  34 H     1.0000    0     1.008   15.654208    5.931775    0.000000
  35 H     1.0000    0     1.008   15.576597    1.261184    0.000000

--------------------------------
INTERNAL COORDINATES (ANGSTROEM)
--------------------------------
 C      0   0   0     0.000000000000     0.00000000     0.00000000
 C      1   0   0     1.396101510958     0.00000000     0.00000000
 C      1   2   0     1.399041561213   120.20250994     0.00000000
 H      1   2   3     1.082575843163   119.66033204   180.00000000
 C      2   1   3     1.396767713902   120.14419606     0.00000000
 H      2   1   3     1.082485119528   119.89715286   180.00000000
 C      3   1   2     1.405922978616   120.28517680     0.00000000
 H      3   1   2     1.082867863084   118.92879829   180.00000000
 C      5   2   1     1.404205444549   120.24840667     0.00000000
 H      5   2   1     1.082710239399   119.00851172   180.00000000
 C      7   3   1     1.405826103115   120.94697313   180.00000085
 C      9   5   2     1.401079887658   120.45535221   180.00000085
 C     11   7   3     1.406659759892   120.48490908   180.00000000
 H     11   7   3     1.083546698440   119.65730840     0.00000000
 C     12   9   5     1.402319680030   120.55002942   180.00000085
 H     12   9   5     1.083790452163   119.67152760     0.00000000
 C     13  11   7     1.407042392041   120.89190002   180.00000000
 C     15  12   9     1.401218476898   120.20270109   180.00000000
 C     17  13  11     1.407158514063   120.52420078   180.00000000
 H     17  13  11     1.083862618324   119.72825543     0.00000000
 C     18  15  12     1.401399381654   120.64860152   180.00000085
 H     18  15  12     1.083563857325   119.67675041     0.00000000
 C     19  17  13     1.406262654343   120.91259443   180.00000000
 C     21  18  15     1.402522129594   120.15748736   180.00000000
 C     23  19  17     1.405990676961   120.45809016   180.00000000
 H     23  19  17     1.083934903627   119.86052972     0.00000000
 C     24  21  18     1.400562270126   120.51037216   180.00000085
 H     24  21  18     1.083903237794   119.79157403     0.00000000
 C     25  23  19     1.405519592642   120.91362260   180.00000085
 C     27  24  21     1.404585650219   120.43491136   180.00000000
 C     29  25  23     1.399038711151   120.25483562   180.00000000
 H     29  25  23     1.082538969830   120.78157007     0.00000000
 C     31  29  25     1.396133819696   120.23318320     0.00000000
 H     30  27  24     1.083117386113   120.74468975     0.00000000
 H     31  29  25     1.082399373106   120.08865630   180.00000000
 H     33  31  29     1.082557505262   119.91276971   180.00000000

---------------------------
INTERNAL COORDINATES (A.U.)
---------------------------
 C      0   0   0     0.000000000000     0.00000000     0.00000000
 C      1   0   0     2.638249510865     0.00000000     0.00000000
 C      1   2   0     2.643805400665   120.20250994     0.00000000
 H      1   2   3     2.045771862777   119.66033204   180.00000000
 C      2   1   3     2.639508451979   120.14419606     0.00000000
 H      2   1   3     2.045600419953   119.89715286   180.00000000
 C      3   1   2     2.656809394971   120.28517680     0.00000000
 H      3   1   2     2.046323700453   118.92879829   180.00000000
 C      5   2   1     2.653563725958   120.24840667     0.00000000
 H      5   2   1     2.046025834857   119.00851172   180.00000000
 C      7   3   1     2.656626326805   120.94697313   180.00000085
 C      9   5   2     2.647657279419   120.45535221   180.00000085
 C     11   7   3     2.658201709804   120.48490908   180.00000000
 H     11   7   3     2.047606513366   119.65730840     0.00000000
 C     12   9   5     2.650000147465   120.55002942   180.00000085
 H     12   9   5     2.048067141147   119.67152760     0.00000000
 C     13  11   7     2.658924779775   120.89190002   180.00000000
 C     15  12   9     2.647919175127   120.20270109   180.00000000
 C     17  13  11     2.659144218595   120.52420078   180.00000000
 H     17  13  11     2.048203515427   119.72825543     0.00000000
 C     18  15  12     2.648261035573   120.64860152   180.00000085
 H     18  15  12     2.047638938959   119.67675041     0.00000000
 C     19  17  13     2.657451289070   120.91259443   180.00000000
 C     21  18  15     2.650382721696   120.15748736   180.00000000
 C     23  19  17     2.656937326302   120.45809016   180.00000000
 H     23  19  17     2.048340114853   119.86052972     0.00000000
 C     24  21  18     2.646679124041   120.51037216   180.00000085
 H     24  21  18     2.048280275101   119.79157403     0.00000000
 C     25  23  19     2.656047105954   120.91362260   180.00000085
 C     27  24  21     2.654282210549   120.43491136   180.00000000
 C     29  25  23     2.643800014830   120.25483562   180.00000000
 H     29  25  23     2.045702182275   120.78157007     0.00000000
 C     31  29  25     2.638310565532   120.23318320     0.00000000
 H     30  27  24     2.046795230642   120.74468975     0.00000000
 H     31  29  25     2.045438382698   120.08865630   180.00000000
 H     33  31  29     2.045737209167   119.91276971   180.00000000

---------------------
BASIS SET INFORMATION
---------------------
There are 2 groups of distinct atoms

 Group   1 Type C   : 11s6p2d1f contracted to 5s3p2d1f pattern {62111/411/11/1}
 Group   2 Type H   : 5s1p contracted to 3s1p pattern {311/1}

Atom   0C    basis set group =>   1
Atom   1C    basis set group =>   1
Atom   2C    basis set group =>   1
Atom   3H    basis set group =>   2
Atom   4C    basis set group =>   1
Atom   5H    basis set group =>   2
Atom   6C    basis set group =>   1
Atom   7H    basis set group =>   2
Atom   8C    basis set group =>   1
Atom   9H    basis set group =>   2
Atom  10C    basis set group =>   1
Atom  11C    basis set group =>   1
Atom  12C    basis set group =>   1
Atom  13H    basis set group =>   2
Atom  14C    basis set group =>   1
Atom  15H    basis set group =>   2
Atom  16C    basis set group =>   1
Atom  17C    basis set group =>   1
Atom  18C    basis set group =>   1
Atom  19H    basis set group =>   2
Atom  20C    basis set group =>   1
Atom  21H    basis set group =>   2
Atom  22C    basis set group =>   1
Atom  23C    basis set group =>   1
Atom  24C    basis set group =>   1
Atom  25H    basis set group =>   2
Atom  26C    basis set group =>   1
Atom  27H    basis set group =>   2
Atom  28C    basis set group =>   1
Atom  29C    basis set group =>   1
Atom  30C    basis set group =>   1
Atom  31H    basis set group =>   2
Atom  32C    basis set group =>   1
Atom  33H    basis set group =>   2
Atom  34H    basis set group =>   2
Atom  35H    basis set group =>   2
---------------------------------
AUXILIARY/J BASIS SET INFORMATION
---------------------------------
There are 2 groups of distinct atoms

 Group   1 Type C   : 12s5p4d2f1g contracted to 6s4p3d1f1g pattern {711111/2111/211/2/1}
 Group   2 Type H   : 5s2p1d contracted to 3s1p1d pattern {311/2/1}

Atom   0C    basis set group =>   1
Atom   1C    basis set group =>   1
Atom   2C    basis set group =>   1
Atom   3H    basis set group =>   2
Atom   4C    basis set group =>   1
Atom   5H    basis set group =>   2
Atom   6C    basis set group =>   1
Atom   7H    basis set group =>   2
Atom   8C    basis set group =>   1
Atom   9H    basis set group =>   2
Atom  10C    basis set group =>   1
Atom  11C    basis set group =>   1
Atom  12C    basis set group =>   1
Atom  13H    basis set group =>   2
Atom  14C    basis set group =>   1
Atom  15H    basis set group =>   2
Atom  16C    basis set group =>   1
Atom  17C    basis set group =>   1
Atom  18C    basis set group =>   1
Atom  19H    basis set group =>   2
Atom  20C    basis set group =>   1
Atom  21H    basis set group =>   2
Atom  22C    basis set group =>   1
Atom  23C    basis set group =>   1
Atom  24C    basis set group =>   1
Atom  25H    basis set group =>   2
Atom  26C    basis set group =>   1
Atom  27H    basis set group =>   2
Atom  28C    basis set group =>   1
Atom  29C    basis set group =>   1
Atom  30C    basis set group =>   1
Atom  31H    basis set group =>   2
Atom  32C    basis set group =>   1
Atom  33H    basis set group =>   2
Atom  34H    basis set group =>   2
Atom  35H    basis set group =>   2
--------------------------------------------------------------------------
[[30899,1],1]: A high-performance Open MPI point-to-point messaging module
was unable to find any relevant network interfaces:

Module: OpenFabrics (openib)
  Host: compute-0-9

Another transport will be used instead, although this may result in
lower performance.

NOTE: You can disable this warning by setting the MCA parameter
btl_base_warn_component_unused to 0.
--------------------------------------------------------------------------


           ************************************************************
           *        Program running with 4 parallel MPI-processes     *
           *              working on a common directory               *
           ************************************************************
------------------------------------------------------------------------------
                           ORCA GTO INTEGRAL CALCULATION
------------------------------------------------------------------------------

                         BASIS SET STATISTICS AND STARTUP INFO

 # of primitive gaussian shells          ...  524
 # of primitive gaussian functions       ... 1124
 # of contracted shells                  ...  298
 # of contracted basis functions         ...  766
 Highest angular momentum                ...    3
 Maximum contraction depth               ...    6
 Integral package used                   ... LIBINT
 Integral threshhold            Thresh   ...  2.500e-11
 Primitive cut-off              TCut     ...  2.500e-12


------------------------------ INTEGRAL EVALUATION ----------------------------


 * One electron integrals 
 Pre-screening matrix                    ... done
 Shell pair data                         ... done (   0.014 sec)

[compute-0-9.local:56732] 3 more processes have sent help message help-mpi-btl-base.txt / btl:no-nics
[compute-0-9.local:56732] Set MCA parameter "orte_base_help_aggregate" to 0 to see all help / error messages
--------------------------------------------------------------------------
[[30849,1],1]: A high-performance Open MPI point-to-point messaging module
was unable to find any relevant network interfaces:

Module: OpenFabrics (openib)
  Host: compute-0-9

Another transport will be used instead, although this may result in
lower performance.

NOTE: You can disable this warning by setting the MCA parameter
btl_base_warn_component_unused to 0.
--------------------------------------------------------------------------


           ************************************************************
           *        Program running with 4 parallel MPI-processes     *
           *              working on a common directory               *
           ************************************************************
-------------------------------------------------------------------------------
                                 ORCA SCF
-------------------------------------------------------------------------------

------------
SCF SETTINGS
------------
Hamiltonian:
 Density Functional     Method          .... DFT(GTOs)
 Exchange Functional    Exchange        .... WB97X-D3
 Correlation Functional Correlation     .... WB97X-D3
 Gradients option       PostSCFGGA      .... off
 Hybrid DFT is turned on
   Fraction HF Exchange ScalHFX         ....  0.195728
   Scaling of DF-GGA-X  ScalDFX         ....  0.000000
   Scaling of DF-GGA-C  ScalDFC         ....  1.000000
   Scaling of DF-LDA-C  ScalLDAC        ....  1.000000
   Perturbative correction              ....  0.000000
   Density functional embedding theory  .... OFF
 Long-range corrected/Screened/Range-Separated Hybrid DFT is turned on
   Amount of maximum screened exact exchange              ....  0.804272
   Range separation parameter mu (erf(mu*r12)/r12)        ....  0.250000


General Settings:
 Integral files         IntName         .... Pentacine
 Hartree-Fock type      HFTyp           .... RHF
 Total Charge           Charge          ....    0
 Multiplicity           Mult            ....    1
 Number of Electrons    NEL             ....  146
 Basis Dimension        Dim             ....  766
 Nuclear Repulsion      ENuc            ....   1502.8076567149 Eh

Convergence Acceleration:
 DIIS                   CNVDIIS         .... on
   Start iteration      DIISMaxIt       ....    12
   Startup error        DIISStart       ....  0.200000
   # of expansion vecs  DIISMaxEq       ....     5
   Bias factor          DIISBfac        ....   1.050
   Max. coefficient     DIISMaxC        ....  10.000
 Newton-Raphson         CNVNR           .... off
 SOSCF                  CNVSOSCF        .... on
   Start iteration      SOSCFMaxIt      ....   150
   Startup grad/error   SOSCFStart      ....  0.003300
 Level Shifting         CNVShift        .... on
   Level shift para.    LevelShift      ....    0.2500
   Turn off err/grad.   ShiftErr        ....    0.0010
 Zerner damping         CNVZerner       .... off
 Static damping         CNVDamp         .... on
   Fraction old density DampFac         ....    0.7000
   Max. Damping (<1)    DampMax         ....    0.9800
   Min. Damping (>=0)   DampMin         ....    0.0000
   Turn off err/grad.   DampErr         ....    0.1000
 Fernandez-Rico         CNVRico         .... off

SCF Procedure:
 Maximum # iterations   MaxIter         ....   125
 SCF integral mode      SCFMode         .... Direct
   Integral package                     .... LIBINT
 Reset frequency        DirectResetFreq ....    20
 Integral Threshold     Thresh          ....  2.500e-11 Eh
 Primitive CutOff       TCut            ....  2.500e-12 Eh

Convergence Tolerance:
 Convergence Check Mode ConvCheckMode   .... Total+1el-Energy
 Convergence forced     ConvForced      .... 0
 Energy Change          TolE            ....  1.000e-08 Eh
 1-El. energy change                    ....  1.000e-05 Eh
 Orbital Gradient       TolG            ....  1.000e-05
 Orbital Rotation angle TolX            ....  1.000e-05
 DIIS Error             TolErr          ....  5.000e-07


Diagonalization of the overlap matrix:
Smallest eigenvalue                        ... 4.730e-06
Time for diagonalization                   ...    0.255 sec
Threshold for overlap eigenvalues          ... 1.000e-08
Number of eigenvalues below threshold      ... 0
Time for construction of square roots      ...    0.114 sec
Total time needed                          ...    0.371 sec

-------------------
DFT GRID GENERATION
-------------------

General Integration Accuracy     IntAcc      ...  4.340
Radial Grid Type                 RadialGrid  ... Gauss-Chebyshev
Angular Grid (max. acc.)         AngularGrid ... Lebedev-110
Angular grid pruning method      GridPruning ... 3 (G Style)
Weight generation scheme         WeightScheme... Becke
Basis function cutoff            BFCut       ...    1.0000e-11
Integration weight cutoff        WCut        ...    1.0000e-14
Grids for H and He will be reduced by one unit

# of grid points (after initial pruning)     ...  47548 (   0.0 sec)
# of grid points (after weights+screening)   ...  42413 (   0.2 sec)
nearest neighbour list constructed           ...    0.0 sec
Grid point re-assignment to atoms done       ...    0.0 sec
Grid point division into batches done        ...    0.0 sec
Reduced shell lists constructed in    0.4 sec

Total number of grid points                  ...    42413
Total number of batches                      ...      686
Average number of points per batch           ...       61
Average number of grid points per atom       ...     1178
Average number of shells per batch           ...   116.94 (39.24%)
Average number of basis functions per batch  ...   300.05 (39.17%)
Average number of large shells per batch     ...    82.15 (70.25%)
Average number of large basis fcns per batch ...   215.23 (71.73%)
Maximum spatial batch extension              ...  20.12, 17.37, 27.31 au
Average spatial batch extension              ...   0.77,  0.76,  1.35 au

Time for grid setup =    0.651 sec

------------------------------
INITIAL GUESS: MODEL POTENTIAL
------------------------------
Loading Hartree-Fock densities                     ... done
Calculating cut-offs                               ... done
Setting up the integral package                    ... done
Initializing the effective Hamiltonian             ... done
Starting the Coulomb interaction                   ... done (   0.9 sec)
Reading the grid                                   ... done
Mapping shells                                     ... done
Starting the XC term evaluation                    ... done (   1.1 sec)
  promolecular density results
     # of electrons  =    146.052623194
     EX              =   -116.746930405
     EC              =     -4.900737350
     EX+EC           =   -121.647667754
Transforming the Hamiltonian                       ... done (   0.1 sec)
Diagonalizing the Hamiltonian                      ... done (   0.3 sec)
Back transforming the eigenvectors                 ... done (   0.0 sec)
Now organizing SCF variables                       ... done
                      ------------------
                      INITIAL GUESS DONE (   3.3 sec)
                      ------------------

--------------------
CPCM SOLVATION MODEL
--------------------
CPCM parameters:
  Epsilon                                         ...       3.0000
  Refrac                                          ...       1.3300
  Rsolv                                           ...       1.3000
  Surface type                                    ...    GEPOL SES
  Epsilon function type                           ...         CPCM
Radii:
 Radius for C  used is    3.7795 Bohr (=   2.0000 Ang.)
 Radius for H  used is    2.4566 Bohr (=   1.3000 Ang.)
Calculating surface                               ...        done! (  0.1s)
GEPOL surface points                              ...         1095
GEPOL Volume                                      ...    2251.9556
GEPOL Surface-area                                ...    1106.6912
Calculating surface distance matrix               ...        done! (  0.0s)
Performing Cholesky decomposition & store         ...        done! (  0.1s)
Overall time for CPCM initialization              ...                 0.2s
--------------
SCF ITERATIONS
--------------
ITER       Energy         Delta-E        Max-DP      RMS-DP      [F,P]     Damp
               ***  Starting incremental Fock matrix formation  ***
[compute-0-9.local:56750] 3 more processes have sent help message help-mpi-btl-base.txt / btl:no-nics
[compute-0-9.local:56750] Set MCA parameter "orte_base_help_aggregate" to 0 to see all help / error messages
  0   -846.4383221767   0.000000000000 0.07582501  0.00089424  0.1269012 0.7000
  1   -846.5751613735  -0.136839196789 0.06570075  0.00075245  0.0796299 0.7000
                               ***Turning on DIIS***
  2   -846.6550409471  -0.079879573687 0.15450213  0.00173758  0.0449960 0.0000
  3   -846.7959603987  -0.140919451512 0.01236553  0.00027529  0.0274483 0.0000
  4   -846.8088974491  -0.012937050434 0.00845653  0.00010208  0.0046567 0.0000
                      *** Initiating the SOSCF procedure ***
                           *** Shutting down DIIS ***
                      *** Re-Reading the Fockian *** 
                      *** Removing any level shift *** 
ITER      Energy       Delta-E        Grad      Rot      Max-DP    RMS-DP
  5   -846.80930369  -0.0004062433  0.001940  0.001940  0.003389  0.000038
               *** Restarting incremental Fock matrix formation ***
  6   -846.80939102  -0.0000873240  0.001351  0.003914  0.001544  0.000023
  7   -846.80943634  -0.0000453187  0.000703  0.004927  0.001328  0.000022
  8   -846.80945200  -0.0000156679  0.000368  0.000807  0.000520  0.000008
  9   -846.80945534  -0.0000033370  0.000088  0.000265  0.000202  0.000003
 10   -846.80945560  -0.0000002609  0.000031  0.000123  0.000040  0.000001
 11   -846.80945566  -0.0000000580  0.000013  0.000055  0.000016  0.000000
 12   -846.80945567  -0.0000000115  0.000008  0.000036  0.000017  0.000000
                  ***Gradient check signals convergence***
              ***Rediagonalizing the Fockian in SOSCF/NRSCF***

               *****************************************************
               *                     SUCCESS                       *
               *           SCF CONVERGED AFTER  13 CYCLES          *
               *****************************************************

Setting up the final grid:

General Integration Accuracy     IntAcc      ...  4.670
Radial Grid Type                 RadialGrid  ... Gauss-Chebyshev
Angular Grid (max. acc.)         AngularGrid ... Lebedev-302
Angular grid pruning method      GridPruning ... 3 (G Style)
Weight generation scheme         WeightScheme... Becke
Basis function cutoff            BFCut       ...    1.0000e-11
Integration weight cutoff        WCut        ...    1.0000e-14
Grids for H and He will be reduced by one unit

# of grid points (after initial pruning)     ... 184180 (   0.0 sec)
# of grid points (after weights+screening)   ... 161916 (   0.9 sec)
nearest neighbour list constructed           ...    0.0 sec
Grid point re-assignment to atoms done       ...    0.0 sec
Grid point division into batches done        ...    0.8 sec
Reduced shell lists constructed in    1.8 sec

Total number of grid points                  ...   161916
Total number of batches                      ...     2551
Average number of points per batch           ...       63
Average number of grid points per atom       ...     4498
Average number of shells per batch           ...   106.09 (35.60%)
Average number of basis functions per batch  ...   271.21 (35.41%)
Average number of large shells per batch     ...    74.05 (69.80%)
Average number of large basis fcns per batch ...   192.19 (70.86%)
Maximum spatial batch extension              ...  15.78, 16.87, 23.20 au
Average spatial batch extension              ...   0.54,  0.54,  0.68 au

Final grid set up in    2.9 sec
Final integration                            ... done (   4.1 sec)
Change in XC energy                          ...     0.009703074
Integrated number of electrons               ...   145.999817586
Previous integrated no of electrons          ...   146.041088159

----------------
TOTAL SCF ENERGY
----------------

Total Energy       :         -846.79975259 Eh          -23042.59273 eV

Components:
Nuclear Repulsion  :         1502.80765671 Eh           40893.47532 eV
Electronic Energy  :        -2349.60740930 Eh          -63936.06805 eV
One Electron Energy:        -4127.72840818 Eh         -112321.20029 eV
Two Electron Energy:         1778.12099888 Eh           48385.13223 eV
CPCM Dielectric    :           -0.00913048 Eh              -0.24845 eV

Virial components:
Potential Energy   :        -1689.95414867 Eh          -45985.99027 eV
Kinetic Energy     :          843.15439608 Eh           22943.39754 eV
Virial Ratio       :            2.00432347


DFT components:
N(Alpha)           :       72.999908792987 electrons
N(Beta)            :       72.999908792987 electrons
N(Total)           :      145.999817585975 electrons
E(XC)              :      -85.736905127685 Eh       
DFET-embed. en.    :        0.000000000000 Eh       
CPCM Solvation Model Properties:
Surface-charge          :           -0.04046600
Charge-correction       :            0.00009457 Eh               0.00257 eV
Free-energy (cav+disp)  :            0.00544561 Eh               0.14818 eV
Corrected G(solv)       :         -846.79421241 Eh          -23042.44197 eV

---------------
SCF CONVERGENCE
---------------

  Last Energy change         ...    7.2796e-09  Tolerance :   1.0000e-08
  Last MAX-Density change    ...    2.3347e-05  Tolerance :   1.0000e-07
  Last RMS-Density change    ...    3.4618e-07  Tolerance :   5.0000e-09
  Last Orbital Gradient      ...    2.3946e-06  Tolerance :   1.0000e-05
  Last Orbital Rotation      ...    2.1167e-05  Tolerance :   1.0000e-05

             **** THE GBW FILE WAS UPDATED (Pentacine.gbw) ****
             **** DENSITY FILE WAS UPDATED (Pentacine.scfp) ****
             **** ENERGY FILE WAS UPDATED (Pentacine.en.tmp) ****
             **** THE GBW FILE WAS UPDATED (Pentacine.gbw) ****
             **** DENSITY FILE WAS UPDATED (Pentacine.scfp) ****
----------------
ORBITAL ENERGIES
----------------

  NO   OCC          E(Eh)            E(eV) 
   0   2.0000     -10.292260      -280.0666 
   1   2.0000     -10.292253      -280.0664 
   2   2.0000     -10.291480      -280.0454 
   3   2.0000     -10.291472      -280.0452 
   4   2.0000     -10.290738      -280.0252 
   5   2.0000     -10.290689      -280.0239 
   6   2.0000     -10.290271      -280.0125 
   7   2.0000     -10.290261      -280.0122 
   8   2.0000     -10.285108      -279.8720 
   9   2.0000     -10.284903      -279.8664 
  10   2.0000     -10.284876      -279.8657 
  11   2.0000     -10.284374      -279.8520 
  12   2.0000     -10.284281      -279.8495 
  13   2.0000     -10.284271      -279.8492 
  14   2.0000     -10.283719      -279.8342 
  15   2.0000     -10.283652      -279.8324 
  16   2.0000     -10.283354      -279.8243 
  17   2.0000     -10.283285      -279.8224 
  18   2.0000     -10.282275      -279.7949 
  19   2.0000     -10.282262      -279.7946 
  20   2.0000     -10.281488      -279.7735 
  21   2.0000     -10.281481      -279.7733 
  22   2.0000      -1.019478       -27.7414 
  23   2.0000      -1.003751       -27.3135 
  24   2.0000      -0.978662       -26.6307 
  25   2.0000      -0.944311       -25.6960 
  26   2.0000      -0.914908       -24.8959 
  27   2.0000      -0.901501       -24.5311 
  28   2.0000      -0.898775       -24.4569 
  29   2.0000      -0.872907       -23.7530 
  30   2.0000      -0.863515       -23.4974 
  31   2.0000      -0.837943       -22.8016 
  32   2.0000      -0.794834       -21.6285 
  33   2.0000      -0.790699       -21.5160 
  34   2.0000      -0.735526       -20.0147 
  35   2.0000      -0.730889       -19.8885 
  36   2.0000      -0.725839       -19.7511 
  37   2.0000      -0.712944       -19.4002 
  38   2.0000      -0.703956       -19.1556 
  39   2.0000      -0.680754       -18.5243 
  40   2.0000      -0.631354       -17.1800 
  41   2.0000      -0.630080       -17.1454 
  42   2.0000      -0.620768       -16.8920 
  43   2.0000      -0.598180       -16.2773 
  44   2.0000      -0.582713       -15.8564 
  45   2.0000      -0.566081       -15.4039 
  46   2.0000      -0.560275       -15.2459 
  47   2.0000      -0.559177       -15.2160 
  48   2.0000      -0.553808       -15.0699 
  49   2.0000      -0.531772       -14.4703 
  50   2.0000      -0.527329       -14.3494 
  51   2.0000      -0.522808       -14.2263 
  52   2.0000      -0.518307       -14.1039 
  53   2.0000      -0.515246       -14.0206 
  54   2.0000      -0.510098       -13.8805 
  55   2.0000      -0.506949       -13.7948 
  56   2.0000      -0.495910       -13.4944 
  57   2.0000      -0.488879       -13.3031 
  58   2.0000      -0.478844       -13.0300 
  59   2.0000      -0.473612       -12.8876 
  60   2.0000      -0.450916       -12.2700 
  61   2.0000      -0.445248       -12.1158 
  62   2.0000      -0.433723       -11.8022 
  63   2.0000      -0.427572       -11.6348 
  64   2.0000      -0.427104       -11.6221 
  65   2.0000      -0.418586       -11.3903 
  66   2.0000      -0.411105       -11.1867 
  67   2.0000      -0.388121       -10.5613 
  68   2.0000      -0.371662       -10.1134 
  69   2.0000      -0.350359        -9.5338 
  70   2.0000      -0.325217        -8.8496 
  71   2.0000      -0.298230        -8.1152 
  72   2.0000      -0.235800        -6.4164 
  73   0.0000      -0.045968        -1.2509 
  74   0.0000       0.019975         0.5435 
  75   0.0000       0.042410         1.1540 
  76   0.0000       0.069804         1.8995 
  77   0.0000       0.092108         2.5064 
  78   0.0000       0.095328         2.5940 
  79   0.0000       0.097114         2.6426 
  80   0.0000       0.136302         3.7090 
  81   0.0000       0.142453         3.8763 
  82   0.0000       0.143084         3.8935 
  83   0.0000       0.150713         4.1011 
  84   0.0000       0.154220         4.1965 
  85   0.0000       0.166649         4.5347 
  86   0.0000       0.170999         4.6531 
  87   0.0000       0.171923         4.6783 
  88   0.0000       0.183474         4.9926 
  89   0.0000       0.183832         5.0023 
  90   0.0000       0.186694         5.0802 
  91   0.0000       0.190064         5.1719 
  92   0.0000       0.195637         5.3236 
  93   0.0000       0.200790         5.4638 
  94   0.0000       0.214365         5.8332 
  95   0.0000       0.217579         5.9206 
  96   0.0000       0.220317         5.9951 
  97   0.0000       0.227967         6.2033 
  98   0.0000       0.233056         6.3418 
  99   0.0000       0.234701         6.3865 
 100   0.0000       0.241452         6.5702 
 101   0.0000       0.247695         6.7401 
 102   0.0000       0.252669         6.8755 
 103   0.0000       0.258884         7.0446 
 104   0.0000       0.262430         7.1411 
 105   0.0000       0.268678         7.3111 
 106   0.0000       0.278316         7.5734 
 107   0.0000       0.279852         7.6152 
 108   0.0000       0.289267         7.8713 
 109   0.0000       0.292948         7.9715 
 110   0.0000       0.297295         8.0898 
 111   0.0000       0.300044         8.1646 
 112   0.0000       0.318040         8.6543 
 113   0.0000       0.321678         8.7533 
 114   0.0000       0.323869         8.8129 
 115   0.0000       0.329221         8.9586 
 116   0.0000       0.335856         9.1391 
 117   0.0000       0.336617         9.1598 
 118   0.0000       0.340237         9.2583 
 119   0.0000       0.341461         9.2916 
 120   0.0000       0.341600         9.2954 
 121   0.0000       0.352352         9.5880 
 122   0.0000       0.352776         9.5995 
 123   0.0000       0.355727         9.6798 
 124   0.0000       0.371215        10.1013 
 125   0.0000       0.372354        10.1323 
 126   0.0000       0.372749        10.1430 
 127   0.0000       0.374788        10.1985 
 128   0.0000       0.377089        10.2611 
 129   0.0000       0.378007        10.2861 
 130   0.0000       0.378606        10.3024 
 131   0.0000       0.385659        10.4943 
 132   0.0000       0.389904        10.6098 
 133   0.0000       0.391216        10.6455 
 134   0.0000       0.395336        10.7576 
 135   0.0000       0.397982        10.8296 
 136   0.0000       0.401303        10.9200 
 137   0.0000       0.401790        10.9333 
 138   0.0000       0.402494        10.9524 
 139   0.0000       0.419625        11.4186 
 140   0.0000       0.425729        11.5847 
 141   0.0000       0.425809        11.5868 
 142   0.0000       0.427526        11.6336 
 143   0.0000       0.433758        11.8032 
 144   0.0000       0.435718        11.8565 
 145   0.0000       0.441398        12.0110 
 146   0.0000       0.443820        12.0770 
 147   0.0000       0.460349        12.5267 
 148   0.0000       0.460478        12.5302 
 149   0.0000       0.468299        12.7431 
 150   0.0000       0.468960        12.7610 
 151   0.0000       0.476479        12.9656 
 152   0.0000       0.477260        12.9869 
 153   0.0000       0.480961        13.0876 
 154   0.0000       0.491295        13.3688 
 155   0.0000       0.500496        13.6192 
 156   0.0000       0.500727        13.6255 
 157   0.0000       0.501361        13.6427 
 158   0.0000       0.507746        13.8165 
 159   0.0000       0.508486        13.8366 
 160   0.0000       0.515165        14.0184 
 161   0.0000       0.516838        14.0639 
 162   0.0000       0.525580        14.3018 
 163   0.0000       0.527078        14.3425 
 164   0.0000       0.533086        14.5060 
 165   0.0000       0.535020        14.5586 
 166   0.0000       0.540128        14.6976 
 167   0.0000       0.542347        14.7580 
 168   0.0000       0.551710        15.0128 
 169   0.0000       0.557856        15.1800 
 170   0.0000       0.577054        15.7024 
 171   0.0000       0.577137        15.7047 
 172   0.0000       0.577642        15.7185 
 173   0.0000       0.587836        15.9958 
 174   0.0000       0.588130        16.0038 
 175   0.0000       0.588794        16.0219 
 176   0.0000       0.591590        16.0980 
 177   0.0000       0.595310        16.1992 
 178   0.0000       0.601435        16.3659 
 179   0.0000       0.602910        16.4060 
 180   0.0000       0.607964        16.5435 
 181   0.0000       0.609329        16.5807 
 182   0.0000       0.613924        16.7057 
 183   0.0000       0.619310        16.8523 
 184   0.0000       0.622301        16.9337 
 185   0.0000       0.627256        17.0685 
 186   0.0000       0.642678        17.4882 
 187   0.0000       0.655216        17.8293 
 188   0.0000       0.659597        17.9486 
 189   0.0000       0.686272        18.6744 
 190   0.0000       0.688664        18.7395 
 191   0.0000       0.689786        18.7700 
 192   0.0000       0.691648        18.8207 
 193   0.0000       0.709137        19.2966 
 194   0.0000       0.710934        19.3455 
 195   0.0000       0.719805        19.5869 
 196   0.0000       0.729415        19.8484 
 197   0.0000       0.730030        19.8651 
 198   0.0000       0.739332        20.1182 
 199   0.0000       0.744778        20.2664 
 200   0.0000       0.747706        20.3461 
 201   0.0000       0.756506        20.5856 
 202   0.0000       0.759015        20.6538 
 203   0.0000       0.770915        20.9777 
 204   0.0000       0.776179        21.1209 
 205   0.0000       0.778072        21.1724 
 206   0.0000       0.784027        21.3345 
 207   0.0000       0.785219        21.3669 
 208   0.0000       0.786478        21.4011 
 209   0.0000       0.793347        21.5881 
 210   0.0000       0.796693        21.6791 
 211   0.0000       0.810656        22.0591 
 212   0.0000       0.815248        22.1840 
 213   0.0000       0.818187        22.2640 
 214   0.0000       0.819589        22.3021 
 215   0.0000       0.826309        22.4850 
 216   0.0000       0.826424        22.4881 
 217   0.0000       0.836165        22.7532 
 218   0.0000       0.836964        22.7749 
 219   0.0000       0.843558        22.9544 
 220   0.0000       0.843967        22.9655 
 221   0.0000       0.847039        23.0491 
 222   0.0000       0.851408        23.1680 
 223   0.0000       0.851916        23.1818 
 224   0.0000       0.858458        23.3598 
 225   0.0000       0.864650        23.5283 
 226   0.0000       0.865906        23.5625 
 227   0.0000       0.877738        23.8845 
 228   0.0000       0.882844        24.0234 
 229   0.0000       0.889942        24.2165 
 230   0.0000       0.898047        24.4371 
 231   0.0000       0.899515        24.4771 
 232   0.0000       0.910033        24.7633 
 233   0.0000       0.913494        24.8574 
 234   0.0000       0.928172        25.2568 
 235   0.0000       0.931842        25.3567 
 236   0.0000       0.934904        25.4400 
 237   0.0000       0.943996        25.6874 
 238   0.0000       0.949853        25.8468 
 239   0.0000       0.954291        25.9676 
 240   0.0000       0.962830        26.1999 
 241   0.0000       0.976305        26.5666 
 242   0.0000       0.979677        26.6584 
 243   0.0000       0.979787        26.6614 
 244   0.0000       0.986761        26.8511 
 245   0.0000       0.987382        26.8680 
 246   0.0000       0.996602        27.1189 
 247   0.0000       0.998603        27.1734 
 248   0.0000       1.004517        27.3343 
 249   0.0000       1.027965        27.9724 
 250   0.0000       1.031467        28.0676 
 251   0.0000       1.032526        28.0964 
 252   0.0000       1.044650        28.4264 
 253   0.0000       1.048856        28.5408 
 254   0.0000       1.061486        28.8845 
 255   0.0000       1.070094        29.1187 
 256   0.0000       1.071581        29.1592 
 257   0.0000       1.086759        29.5722 
 258   0.0000       1.093357        29.7518 
 259   0.0000       1.101957        29.9858 
 260   0.0000       1.103679        30.0326 
 261   0.0000       1.118765        30.4431 
 262   0.0000       1.119397        30.4603 
 263   0.0000       1.122218        30.5371 
 264   0.0000       1.143202        31.1081 
 265   0.0000       1.145358        31.1668 
 266   0.0000       1.167699        31.7747 
 267   0.0000       1.177322        32.0366 
 268   0.0000       1.197285        32.5798 
 269   0.0000       1.199541        32.6412 
 270   0.0000       1.214583        33.0505 
 271   0.0000       1.220993        33.2249 
 272   0.0000       1.224185        33.3118 
 273   0.0000       1.231277        33.5048 
 274   0.0000       1.236527        33.6476 
 275   0.0000       1.236625        33.6503 
 276   0.0000       1.238977        33.7143 
 277   0.0000       1.239373        33.7251 
 278   0.0000       1.275777        34.7157 
 279   0.0000       1.287699        35.0401 
 280   0.0000       1.288882        35.0723 
 281   0.0000       1.297488        35.3065 
 282   0.0000       1.300617        35.3916 
 283   0.0000       1.310818        35.6692 
 284   0.0000       1.334164        36.3044 
 285   0.0000       1.335698        36.3462 
 286   0.0000       1.340254        36.4702 
 287   0.0000       1.344341        36.5814 
 288   0.0000       1.344395        36.5828 
 289   0.0000       1.347149        36.6578 
 290   0.0000       1.348443        36.6930 
 291   0.0000       1.353065        36.8188 
 292   0.0000       1.364417        37.1277 
 293   0.0000       1.368917        37.2501 
 294   0.0000       1.389822        37.8190 
 295   0.0000       1.392668        37.8964 
 296   0.0000       1.402445        38.1625 
 297   0.0000       1.410104        38.3709 
 298   0.0000       1.411519        38.4094 
 299   0.0000       1.424901        38.7735 
 300   0.0000       1.428605        38.8743 
 301   0.0000       1.445972        39.3469 
[...]
      px      :     1.027236
      py      :     0.987673
      dz2     :     0.025238  d :     0.379382
      dxz     :     0.080612
      dyz     :     0.010962
      dx2y2   :     0.161157
      dxy     :     0.101414
      f0      :     0.003134  f :     0.041682
      f+1     :     0.004172
      f-1     :     0.003108
      f+2     :     0.001561
      f-2     :     0.006490
      f+3     :     0.015244
      f-3     :     0.007973
 11 C s       :     2.745028  s :     2.745028
      pz      :     0.880266  p :     2.895177
      px      :     1.027025
      py      :     0.987885
      dz2     :     0.025239  d :     0.379393
      dxz     :     0.080601
      dyz     :     0.010973
      dx2y2   :     0.161325
      dxy     :     0.101255
      f0      :     0.003135  f :     0.041686
      f+1     :     0.004171
      f-1     :     0.003111
      f+2     :     0.001563
      f-2     :     0.006487
      f+3     :     0.015232
      f-3     :     0.007987
 12 C s       :     2.684780  s :     2.684780
      pz      :     0.835841  p :     2.835093
      px      :     1.005283
      py      :     0.993970
      dz2     :     0.033340  d :     0.521339
      dxz     :     0.083020
      dyz     :     0.067192
      dx2y2   :     0.168211
      dxy     :     0.169576
      f0      :     0.003889  f :     0.058977
      f+1     :     0.004237
      f-1     :     0.004049
      f+2     :     0.006808
      f-2     :     0.007102
      f+3     :     0.023524
      f-3     :     0.009369
 13 H s       :     0.781633  s :     0.781633
      pz      :     0.013770  p :     0.059291
      px      :     0.010199
      py      :     0.035322
 14 C s       :     2.684766  s :     2.684766
      pz      :     0.835833  p :     2.835099
      px      :     1.005193
      py      :     0.994073
      dz2     :     0.033341  d :     0.521364
      dxz     :     0.082997
      dyz     :     0.067226
      dx2y2   :     0.168307
      dxy     :     0.169493
      f0      :     0.003889  f :     0.058982
      f+1     :     0.004236
      f-1     :     0.004050
      f+2     :     0.006803
      f-2     :     0.007108
      f+3     :     0.023520
      f-3     :     0.009376
 15 H s       :     0.781628  s :     0.781628
      pz      :     0.013770  p :     0.059289
      px      :     0.010203
      py      :     0.035316
 16 C s       :     2.744524  s :     2.744524
      pz      :     0.879717  p :     2.893818
      px      :     1.026454
      py      :     0.987647
      dz2     :     0.025207  d :     0.379309
      dxz     :     0.080889
      dyz     :     0.011010
      dx2y2   :     0.160828
      dxy     :     0.101374
      f0      :     0.003148  f :     0.041671
      f+1     :     0.004162
      f-1     :     0.003106
      f+2     :     0.001568
      f-2     :     0.006501
      f+3     :     0.015238
      f-3     :     0.007949
 17 C s       :     2.744499  s :     2.744499
      pz      :     0.879706  p :     2.893812
      px      :     1.026470
      py      :     0.987637
      dz2     :     0.025210  d :     0.379344
      dxz     :     0.080900
      dyz     :     0.011010
      dx2y2   :     0.160843
      dxy     :     0.101380
      f0      :     0.003148  f :     0.041677
      f+1     :     0.004162
      f-1     :     0.003106
      f+2     :     0.001569
      f-2     :     0.006502
      f+3     :     0.015240
      f-3     :     0.007950
 18 C s       :     2.684781  s :     2.684781
      pz      :     0.835838  p :     2.835095
      px      :     1.005183
      py      :     0.994073
      dz2     :     0.033340  d :     0.521340
      dxz     :     0.082989
      dyz     :     0.067225
      dx2y2   :     0.168295
      dxy     :     0.169490
      f0      :     0.003888  f :     0.058977
      f+1     :     0.004236
      f-1     :     0.004049
      f+2     :     0.006803
      f-2     :     0.007108
      f+3     :     0.023517
      f-3     :     0.009375
 19 H s       :     0.781414  s :     0.781414
      pz      :     0.013815  p :     0.059350
      px      :     0.010195
      py      :     0.035340
 20 C s       :     2.684766  s :     2.684766
      pz      :     0.835837  p :     2.835098
      px      :     1.005294
      py      :     0.993968
      dz2     :     0.033341  d :     0.521362
      dxz     :     0.083028
      dyz     :     0.067193
      dx2y2   :     0.168223
      dxy     :     0.169577
      f0      :     0.003889  f :     0.058982
      f+1     :     0.004237
      f-1     :     0.004049
      f+2     :     0.006809
      f-2     :     0.007103
      f+3     :     0.023526
      f-3     :     0.009370
 21 H s       :     0.781408  s :     0.781408
      pz      :     0.013815  p :     0.059348
      px      :     0.010195
      py      :     0.035339
 22 C s       :     2.745044  s :     2.745044
      pz      :     0.880273  p :     2.895181
      px      :     1.027015
      py      :     0.987893
      dz2     :     0.025237  d :     0.379370
      dxz     :     0.080593
      dyz     :     0.010973
      dx2y2   :     0.161315
      dxy     :     0.101251
      f0      :     0.003134  f :     0.041682
      f+1     :     0.004170
      f-1     :     0.003111
      f+2     :     0.001563
      f-2     :     0.006487
      f+3     :     0.015230
      f-3     :     0.007987
 23 C s       :     2.745026  s :     2.745026
      pz      :     0.880248  p :     2.895160
      px      :     1.027247
      py      :     0.987665
      dz2     :     0.025239  d :     0.379406
      dxz     :     0.080619
      dyz     :     0.010962
      dx2y2   :     0.161167
      dxy     :     0.101419
      f0      :     0.003135  f :     0.041686
      f+1     :     0.004172
      f-1     :     0.003108
      f+2     :     0.001561
      f-2     :     0.006490
      f+3     :     0.015246
      f-3     :     0.007974
 24 C s       :     2.688031  s :     2.688031
      pz      :     0.835641  p :     2.836284
      px      :     1.006442
      py      :     0.994201
      dz2     :     0.033369  d :     0.517589
      dxz     :     0.080524
      dyz     :     0.066642
      dx2y2   :     0.168729
      dxy     :     0.168325
      f0      :     0.003898  f :     0.058329
      f+1     :     0.004215
      f-1     :     0.004033
      f+2     :     0.006683
      f-2     :     0.006839
      f+3     :     0.023323
      f-3     :     0.009339
 25 H s       :     0.781631  s :     0.781631
      pz      :     0.013770  p :     0.059291
      px      :     0.010203
      py      :     0.035317
 26 C s       :     2.688023  s :     2.688023
      pz      :     0.835651  p :     2.836281
      px      :     1.006751
      py      :     0.993879
      dz2     :     0.033369  d :     0.517596
      dxz     :     0.080639
      dyz     :     0.066525
      dx2y2   :     0.168481
      dxy     :     0.168582
      f0      :     0.003898  f :     0.058332
      f+1     :     0.004217
      f-1     :     0.004030
      f+2     :     0.006702
      f-2     :     0.006820
      f+3     :     0.023342
      f-3     :     0.009322
 27 H s       :     0.781629  s :     0.781629
      pz      :     0.013770  p :     0.059289
      px      :     0.010198
      py      :     0.035321
 28 C s       :     2.757282  s :     2.757282
      pz      :     0.882329  p :     2.923403
      px      :     1.047527
      py      :     0.993548
      dz2     :     0.025142  d :     0.383864
      dxz     :     0.080542
      dyz     :     0.011354
      dx2y2   :     0.164947
      dxy     :     0.101879
      f0      :     0.003100  f :     0.042153
      f+1     :     0.004260
      f-1     :     0.003150
      f+2     :     0.001459
      f-2     :     0.006648
      f+3     :     0.015475
      f-3     :     0.008062
 29 C s       :     2.757276  s :     2.757276
      pz      :     0.882315  p :     2.923392
      px      :     1.048188
      py      :     0.992889
      dz2     :     0.025143  d :     0.383885
      dxz     :     0.080601
      dyz     :     0.011308
      dx2y2   :     0.164554
      dxy     :     0.102279
      f0      :     0.003100  f :     0.042153
      f+1     :     0.004264
      f-1     :     0.003146
      f+2     :     0.001453
      f-2     :     0.006654
      f+3     :     0.015519
      f-3     :     0.008018
 30 C s       :     2.764920  s :     2.764920
      pz      :     0.884592  p :     2.951411
      px      :     1.031536
      py      :     1.035283
      dz2     :     0.025017  d :     0.387239
      dxz     :     0.025770
      dyz     :     0.066480
      dx2y2   :     0.128093
      dxy     :     0.141879
      f0      :     0.003109  f :     0.043147
      f+1     :     0.003579
      f-1     :     0.003913
      f+2     :     0.005543
      f-2     :     0.003338
      f+3     :     0.015727
      f-3     :     0.007938
 31 H s       :     0.786085  s :     0.786085
      pz      :     0.013297  p :     0.059029
      px      :     0.010462
      py      :     0.035270
 32 C s       :     2.764918  s :     2.764918
      pz      :     0.884616  p :     2.951382
      px      :     1.032454
      py      :     1.034312
      dz2     :     0.025018  d :     0.387254
      dxz     :     0.026342
      dyz     :     0.065908
      dx2y2   :     0.126716
      dxy     :     0.143271
      f0      :     0.003109  f :     0.043148
      f+1     :     0.003592
      f-1     :     0.003899
      f+2     :     0.005667
      f-2     :     0.003214
      f+3     :     0.015726
      f-3     :     0.007940
 33 H s       :     0.786092  s :     0.786092
      pz      :     0.013297  p :     0.059028
      px      :     0.010454
      py      :     0.035277
 34 H s       :     0.789795  s :     0.789795
      pz      :     0.013230  p :     0.058991
      px      :     0.028930
      py      :     0.016830
 35 H s       :     0.789810  s :     0.789810
      pz      :     0.013230  p :     0.058993
      px      :     0.028700
      py      :     0.017062


                      *****************************
                      * MAYER POPULATION ANALYSIS *
                      *****************************

  NA   - Mulliken gross atomic population
  ZA   - Total nuclear charge
  QA   - Mulliken gross atomic charge
  VA   - Mayer's total valence
  BVA  - Mayer's bonded valence
  FA   - Mayer's free valence

  ATOM       NA         ZA         QA         VA         BVA        FA
  0 C      6.1282     6.0000    -0.1282     3.8530     3.8530    -0.0000
  1 C      6.1288     6.0000    -0.1288     3.8530     3.8530    -0.0000
  2 C      6.2624     6.0000    -0.2624     3.8852     3.8852    -0.0000
  3 H      0.8473     1.0000     0.1527     0.9636     0.9636    -0.0000
  4 C      6.2621     6.0000    -0.2621     3.8856     3.8856    -0.0000
  5 H      0.8470     1.0000     0.1530     0.9635     0.9635    -0.0000
  6 C      5.8357     6.0000     0.1643     3.7296     3.7296    -0.0000
  7 H      0.8530     1.0000     0.1470     0.9737     0.9737    -0.0000
  8 C      5.8355     6.0000     0.1645     3.7294     3.7294    -0.0000
  9 H      0.8529     1.0000     0.1471     0.9737     0.9737    -0.0000
 10 C      6.3176     6.0000    -0.3176     3.8506     3.8506    -0.0000
 11 C      6.3177     6.0000    -0.3177     3.8508     3.8508    -0.0000
 12 C      5.8046     6.0000     0.1954     3.7503     3.7503    -0.0000
 13 H      0.8560     1.0000     0.1440     0.9792     0.9792    -0.0000
 14 C      5.8045     6.0000     0.1955     3.7502     3.7502    -0.0000
 15 H      0.8560     1.0000     0.1440     0.9792     0.9792    -0.0000
 16 C      6.3348     6.0000    -0.3348     3.8490     3.8490    -0.0000
 17 C      6.3348     6.0000    -0.3348     3.8490     3.8490    -0.0000
 18 C      5.8046     6.0000     0.1954     3.7502     3.7502    -0.0000
 19 H      0.8558     1.0000     0.1442     0.9797     0.9797    -0.0000
 20 C      5.8046     6.0000     0.1954     3.7503     3.7503    -0.0000
 21 H      0.8558     1.0000     0.1442     0.9797     0.9797    -0.0000
 22 C      6.3177     6.0000    -0.3177     3.8507     3.8507    -0.0000
 23 C      6.3176     6.0000    -0.3176     3.8506     3.8506    -0.0000
 24 C      5.8355     6.0000     0.1645     3.7294     3.7294    -0.0000
 25 H      0.8560     1.0000     0.1440     0.9792     0.9792    -0.0000
 26 C      5.8357     6.0000     0.1643     3.7296     3.7296    -0.0000
 27 H      0.8560     1.0000     0.1440     0.9792     0.9792    -0.0000
 28 C      6.2620     6.0000    -0.2620     3.8856     3.8856    -0.0000
 29 C      6.2624     6.0000    -0.2624     3.8852     3.8852    -0.0000
 30 C      6.1288     6.0000    -0.1288     3.8530     3.8530    -0.0000
 31 H      0.8529     1.0000     0.1471     0.9737     0.9737    -0.0000
 32 C      6.1282     6.0000    -0.1282     3.8530     3.8530    -0.0000
 33 H      0.8530     1.0000     0.1470     0.9737     0.9737    -0.0000
 34 H      0.8470     1.0000     0.1530     0.9635     0.9635    -0.0000
 35 H      0.8473     1.0000     0.1527     0.9636     0.9636    -0.0000

  Mayer bond orders larger than 0.100000
B(  0-C ,  1-C ) :   1.1116 B(  0-C ,  2-C ) :   1.6691 B(  0-C ,  3-H ) :   0.9850 
B(  1-C ,  4-C ) :   1.6692 B(  1-C ,  5-H ) :   0.9848 B(  2-C ,  6-C ) :   1.0920 
B(  2-C ,  7-H ) :   0.9917 B(  4-C ,  8-C ) :   1.0924 B(  4-C ,  9-H ) :   0.9916 
B(  6-C ,  8-C ) :   1.1599 B(  6-C , 10-C ) :   1.4472 B(  8-C , 11-C ) :   1.4465 
B( 10-C , 12-C ) :   1.2063 B( 10-C , 13-H ) :   0.9822 B( 11-C , 14-C ) :   1.2068 
B( 11-C , 15-H ) :   0.9823 B( 12-C , 14-C ) :   1.1737 B( 12-C , 16-C ) :   1.3097 
B( 14-C , 17-C ) :   1.3090 B( 16-C , 18-C ) :   1.3090 B( 16-C , 19-H ) :   0.9893 
B( 17-C , 20-C ) :   1.3097 B( 17-C , 21-H ) :   0.9893 B( 18-C , 20-C ) :   1.1737 
B( 18-C , 22-C ) :   1.2068 B( 20-C , 23-C ) :   1.2062 B( 22-C , 24-C ) :   1.4465 
B( 22-C , 25-H ) :   0.9823 B( 23-C , 26-C ) :   1.4472 B( 23-C , 27-H ) :   0.9822 
B( 24-C , 26-C ) :   1.1599 B( 24-C , 28-C ) :   1.0924 B( 26-C , 29-C ) :   1.0920 
B( 28-C , 30-C ) :   1.6692 B( 28-C , 31-H ) :   0.9916 B( 29-C , 32-C ) :   1.6691 
B( 29-C , 33-H ) :   0.9917 B( 30-C , 32-C ) :   1.1116 B( 30-C , 34-H ) :   0.9848 
B( 32-C , 35-H ) :   0.9850 

-------
TIMINGS
-------

Total SCF time: 0 days 0 hours 23 min 55 sec 

Total time                  ....    1435.829 sec
Sum of individual times     ....    1433.969 sec  ( 99.9%)

Fock matrix formation       ....    1427.831 sec  ( 99.4%)
  XC integration            ....       8.886 sec  (  0.6% of F)
    Basis function eval.    ....       1.667 sec  ( 18.8% of XC)
    Density eval.           ....       2.501 sec  ( 28.1% of XC)
    XC-Functional eval.     ....       0.474 sec  (  5.3% of XC)
    XC-Potential eval.      ....       3.963 sec  ( 44.6% of XC)
Diagonalization             ....       0.441 sec  (  0.0%)
Density matrix formation    ....       0.050 sec  (  0.0%)
Population analysis         ....       0.282 sec  (  0.0%)
Initial guess               ....       0.459 sec  (  0.0%)
Orbital Transformation      ....       0.000 sec  (  0.0%)
Orbital Orthonormalization  ....       0.414 sec  (  0.0%)
DIIS solution               ....       0.124 sec  (  0.0%)
SOSCF solution              ....       1.268 sec  (  0.1%)
Grid generation             ....       3.515 sec  (  0.2%)


-------------------------------------------------------------------------------
                          DFT DISPERSION CORRECTION                            
                                                                               
                              DFTD3 V3.1  Rev 1                                
                              USING zero damping                               
-------------------------------------------------------------------------------
The omegaB97X-D3 functional is recognized. Fit by Chai et al.
Active option DFTDOPT                   ...         3   

molecular C6(AA) [au] = 18130.278647 


            DFT-D V3
 parameters
 s6 scaling factor         :     1.0000 
 rs6 scaling factor        :     1.2810 
 s8 scaling factor         :     1.0000 
 rs8 scaling factor        :     1.0940 
 Damping factor alpha6     :    14.0000 
 Damping factor alpha8     :    16.0000 
 ad hoc parameters k1-k3   :    16.0000     1.3333    -4.0000 

 Edisp/kcal,au: -8.739179378410  -0.013926767336 
 E6   /kcal   :  -4.099534709 
 E8   /kcal   :  -4.639644669 
 % E8         :  53.090164057 

-------------------------   ----------------
Dispersion correction           -0.013926767
-------------------------   ----------------


-------------------------   --------------------
FINAL SINGLE POINT ENERGY      -846.828901983207
-------------------------   --------------------

                                *** OPTIMIZATION RUN DONE ***

                            ***************************************
                            *     ORCA property calculations      *
                            ***************************************

                                    ---------------------
                                    Active property flags
                                    ---------------------
   (+) Dipole Moment


------------------------------------------------------------------------------
                       ORCA ELECTRIC PROPERTIES CALCULATION
------------------------------------------------------------------------------

Dipole Moment Calculation                       ... on
Quadrupole Moment Calculation                   ... off
Polarizability Calculation                      ... off
GBWName                                         ... Pentacine.gbw
Electron density file                           ... Pentacine.scfp
The origin for moment calculation is the CENTER OF MASS  = ( 2.337339,  3.733703 -0.000001)

-------------
DIPOLE MOMENT
-------------
                                X             Y             Z
Electronic contribution:     -0.00000       0.00015      -0.00001
Nuclear contribution   :      0.00001      -0.00011       0.00001
                        -----------------------------------------
Total Dipole Moment    :      0.00001       0.00004       0.00001
                        -----------------------------------------
Magnitude (a.u.)       :      0.00004
Magnitude (Debye)      :      0.00011



--------------------
Rotational spectrum 
--------------------
 
Rotational constants in cm-1:     0.044435     0.003961     0.003637 
Rotational constants in MHz :  1332.123290   118.759905   109.038988 

 Dipole components along the rotational axes: 
x,y,z [a.u.] :    -0.000006     0.000041     0.000008 
x,y,z [Debye]:    -0.000015     0.000105     0.000020 

 
--------------------------------------------------------------------------
[[39535,1],0]: A high-performance Open MPI point-to-point messaging module
was unable to find any relevant network interfaces:

Module: OpenFabrics (openib)
  Host: compute-0-9

Another transport will be used instead, although this may result in
lower performance.

NOTE: You can disable this warning by setting the MCA parameter
btl_base_warn_component_unused to 0.
--------------------------------------------------------------------------
[compute-0-9.local:16192] 3 more processes have sent help message help-mpi-btl-base.txt / btl:no-nics
[compute-0-9.local:16192] Set MCA parameter "orte_base_help_aggregate" to 0 to see all help / error messages

Timings for individual modules:

Sum of individual times         ...    29138.944 sec (= 485.649 min)
GTO integral calculation        ...       12.159 sec (=   0.203 min)   0.0 %
SCF iterations                  ...    17886.499 sec (= 298.108 min)  61.4 %
SCF Gradient evaluation         ...    11237.988 sec (= 187.300 min)  38.6 %
Geometry relaxation             ...        2.298 sec (=   0.038 min)   0.0 %
                             ****ORCA TERMINATED NORMALLY****
TOTAL RUN TIME: 0 days 8 hours 5 minutes 42 seconds 10 msec
