Warning: no access to tty (Bad file descriptor).
Thus no job control in this shell.

                                 *****************
                                 * O   R   C   A *
                                 *****************

           --- An Ab Initio, DFT and Semiempirical electronic structure package ---

                  #######################################################
                  #                        -***-                        #
                  #          Department of theory and spectroscopy      #
                  #               Directorship: Frank Neese             #
                  #        Max Planck Institute fuer Kohlenforschung    #
                  #                Kaiser Wilhelm Platz 1               #
                  #                 D-45470 Muelheim/Ruhr               #
                  #                      Germany                        #
                  #                                                     #
                  #                  All rights reserved                #
                  #                        -***-                        #
                  #######################################################


                         Program Version 4.2.1 -  RELEASE  -


 With contributions from (in alphabetic order):
   Daniel Aravena         : Magnetic Suceptibility
   Michael Atanasov       : Ab Initio Ligand Field Theory (pilot matlab implementation)
   Alexander A. Auer      : GIAO ZORA, VPT2
   Ute Becker             : Parallelization
   Giovanni Bistoni       : ED, misc. LED, open-shell LED, HFLD
   Martin Brehm           : Molecular dynamics
   Dmytro Bykov           : SCF Hessian
   Vijay G. Chilkuri      : MRCI spin determinant printing, contributions to CSF-ICE
   Dipayan Datta          : RHF DLPNO-CCSD density
   Achintya Kumar Dutta   : EOM-CC, STEOM-CC
   Dmitry Ganyushin       : Spin-Orbit,Spin-Spin,Magnetic field MRCI
   Miquel Garcia          : C-PCM Hessian, Gaussian charge scheme
   Yang Guo               : DLPNO-NEVPT2, CIM, IAO-localization
   Andreas Hansen         : Spin unrestricted coupled pair/coupled cluster methods
   Benjamin Helmich-Paris : CASSCF linear response (MC-RPA)
   Lee Huntington         : MR-EOM, pCC
   Robert Izsak           : Overlap fitted RIJCOSX, COSX-SCS-MP3, EOM
   Christian Kollmar      : KDIIS, OOCD, Brueckner-CCSD(T), CCSD density
   Simone Kossmann        : Meta GGA functionals, TD-DFT gradient, OOMP2, MP2 Hessian
   Martin Krupicka        : AUTO-CI
   Lucas Lang             : DCDCAS
   Dagmar Lenk            : GEPOL surface, SMD
   Dimitrios Liakos       : Extrapolation schemes; Compound Job, initial MDCI parallelization
   Dimitrios Manganas     : Further ROCIS development; embedding schemes
   Dimitrios Pantazis     : SARC Basis sets
   Taras Petrenko         : DFT Hessian,TD-DFT gradient, ASA, ECA, R-Raman, ABS, FL, XAS/XES, NRVS
   Peter Pinski           : DLPNO-MP2, DLPNO-MP2 Gradient
   Christoph Reimann      : Effective Core Potentials
   Marius Retegan         : Local ZFS, SOC
   Christoph Riplinger    : Optimizer, TS searches, QM/MM, DLPNO-CCSD(T), (RO)-DLPNO pert. Triples
   Tobias Risthaus        : Range-separated hybrids, TD-DFT gradient, RPA, STAB
   Michael Roemelt        : Original ROCIS implementation
   Masaaki Saitow         : Open-shell DLPNO-CCSD energy and density
   Barbara Sandhoefer     : DKH picture change effects
   Avijit Sen             : IP-ROCIS
   Kantharuban Sivalingam : CASSCF convergence, NEVPT2, FIC-MRCI
   Bernardo de Souza      : ESD, SOC TD-DFT
   Georgi Stoychev        : AutoAux, RI-MP2 NMR
   Willem Van den Heuvel  : Paramagnetic NMR
   Boris Wezisla          : Elementary symmetry handling
   Frank Wennmohs         : Technical directorship


 We gratefully acknowledge several colleagues who have allowed us to
 interface, adapt or use parts of their codes:
   Stefan Grimme, W. Hujo, H. Kruse,             : VdW corrections, initial TS optimization,
                  C. Bannwarth                     DFT functionals, gCP, sTDA/sTD-DF
   Ed Valeev, F. Pavosevic, A. Kumar             : LibInt (2-el integral package), F12 methods
   Garnet Chan, S. Sharma, J. Yang, R. Olivares  : DMRG
   Ulf Ekstrom                                   : XCFun DFT Library
   Mihaly Kallay                                 : mrcc  (arbitrary order and MRCC methods)
   Andreas Klamt, Michael Diedenhofen            : otool_cosmo (COSMO solvation model)
   Jiri Pittner, Ondrej Demel                    : Mk-CCSD
   Frank Weinhold                                : gennbo (NPA and NBO analysis)
   Christopher J. Cramer and Donald G. Truhlar   : smd solvation model
   Lars Goerigk                                  : TD-DFT with DH, B97 family of functionals
   V. Asgeirsson, H. Jonsson                     : NEB implementation
   FAccTs GmbH                                   : IRC, NEB, NEB-TS, Multilevel, MM, QM/MM, CI optimization
   S Lehtola, MJT Oliveira, MAL Marques          : LibXC Library


 Your calculation uses the libint2 library for the computation of 2-el integrals
 For citations please refer to: http://libint.valeyev.net

 Your ORCA version has been built with support for libXC version: 4.2.3
 For citations please refer to: https://tddft.org/programs/libxc/

 This ORCA versions uses:
   CBLAS   interface :  Fast vector & matrix operations
   LAPACKE interface :  Fast linear algebra routines
   SCALAPACK package :  Parallel linear algebra routines


Your calculation utilizes the atom-pairwise dispersion correction
with the zero-damping scheme (D30)
Cite in your paper:
S.Grimme, J.Antony, S.Ehrlich and H.Krieg, J.Chem.Phys., 132, (2010), 154104 
   

XCFun DFT library Copyright 2009-2010 Ulf Ekstrom and contributors.
See http://admol.org/xcfun for more information. This is free soft-
ware; see the source code for copying conditions. There is ABSOLUTELY
NO WARRANTY; not even for MERCHANTABILITY or FITNESS FOR A PARTICULAR
PURPOSE. For details see the documentation. Scientific users of this 
library should cite U. Ekstrom, L. Visscher, R. Bast, A. J. Thorvald-
sen and K. Ruud; J.Chem.Theor.Comp. 2010, DOI: 10.1021/ct100117s
XCFun Version 0.99 
----- Orbital basis set information -----
Your calculation utilizes the basis: def2-TZVP
   F. Weigend and R. Ahlrichs, Phys. Chem. Chem. Phys. 7, 3297 (2005).

----- AuxJ basis set information -----
Your calculation utilizes the auxiliary basis: def2/J
   F. Weigend, Phys. Chem. Chem. Phys. 8, 1057 (2006).

================================================================================
                                        WARNINGS
                       Please study these warnings very carefully!
================================================================================


WARNING: your system is open-shell and RHF/RKS was chosen
  ===> : WILL SWITCH to UHF/UKS


WARNING: Geometry Optimization
  ===> : Switching off AutoStart
         For restart on a previous wavefunction, please use MOREAD

INFO   : the flag for use of LIBINT has been found!

================================================================================
                                       INPUT FILE
================================================================================
NAME = CN6-CP-TBA.inp
|  1> # avogadro generated ORCA input file 
|  2> # Basic Mode
|  3> # 
|  4> ! wB97X-D3 OPT def2-TZVP def2/J CPCM
|  5> %cpcm
|  6>   epsilon 3
|  7> end
|  8> %pal
|  9>  nprocs 8
| 10> end 
| 11> 
| 12> * xyz -1 2
| 13>    C       -2.20331        1.19339       -0.02719
| 14>    C       -1.30213        2.42139       -0.01128
| 15>    C       -0.61539        2.58769        1.34411
| 16>    C        0.59848        3.52010        1.37559
| 17>    N        0.36882        5.05662        1.43498
| 18>    C       -0.28809        5.53866        0.11399
| 19>    C       -0.27409        7.05921       -0.08012
| 20>    C       -1.19449        7.46406       -1.23470
| 21>    C       -1.17821        8.96769       -1.45953
| 22>    C       -0.41807        5.47256        2.70528
| 23>    C       -1.94091        5.53082        2.55163
| 24>    C       -2.60981        5.73523        3.91407
| 25>    C       -4.12272        5.81703        3.78564
| 26>    C        1.80450        5.71691        1.50588
| 27>    C        2.64990        5.28679        2.71086
| 28>    C        3.94881        6.09734        2.76683
| 29>    C        4.82230        5.67081        3.93607
| 30>    H       -1.62629        0.27928        0.14589
| 31>    H       -2.69955        1.10078       -0.99838
| 32>    H       -2.97611        1.26494        0.74487
| 33>    H       -0.55398        2.32386       -0.80566
| 34>    H       -1.92334        3.28723       -0.24547
| 35>    H       -0.22953        1.59671        1.62482
| 36>    H       -1.33814        2.82968        2.12593
| 37>    H        1.24670        3.32920        0.51382
| 38>    H        1.15072        3.25990        2.28251
| 39>    H        0.25334        5.05413       -0.70727
| 40>    H       -1.31488        5.17709        0.10978
| 41>    H        0.74067        7.39803       -0.31831
| 42>    H       -0.58722        7.57974        0.83063
| 43>    H       -0.88101        6.95823       -2.15539
| 44>    H       -2.22144        7.14505       -1.02150
| 45>    H       -0.17052        9.31671       -1.70657
| 46>    H       -1.51761        9.50138       -0.56603
| 47>    H       -1.84257        9.23434       -2.28741
| 48>    H       -0.06066        6.46887        2.99116
| 49>    H       -0.13141        4.77121        3.49689
| 50>    H       -2.22397        6.36669        1.90289
| 51>    H       -2.34389        4.62612        2.09295
| 52>    H       -2.23746        6.65626        4.37755
| 53>    H       -2.35152        4.90616        4.58320
| 54>    H       -4.41750        6.65583        3.14705
| 55>    H       -4.57932        5.96215        4.76966
| 56>    H       -4.52996        4.89688        3.35450
| 57>    H        2.30932        5.47199        0.56423
| 58>    H        1.65062        6.79924        1.55669
| 59>    H        2.91664        4.22815        2.64562
| 60>    H        2.10102        5.43171        3.64691
| 61>    H        4.50921        5.96704        1.83361
| 62>    H        3.71803        7.16480        2.86154
| 63>    H        5.10090        4.61539        3.85294
| 64>    H        4.30155        5.81516        4.88803
| 65>    H        5.74191        6.26385        3.95822
| 66>    N        6.26842        1.64079       -3.35345
| 67>    C        5.75243        1.37557       -2.35064
| 68>    C        5.11614        1.05993       -1.11906
| 69>    C        4.53309        2.11843       -0.36153
| 70>    N        3.97858        2.91786        0.27317
| 71>    C        5.02271       -0.24113       -0.77148
| 72>    C        5.16023       -0.73320        0.69392
| 73>    C        5.81296       -1.87371        0.99850
| 74>    C        5.79262       -3.03221        0.17227
| 75>    N        5.71082       -3.93788       -0.54574
| 76>    C        6.54450       -1.90097        2.21696
| 77>    N        7.12847       -1.87313        3.21763
| 78>    C        3.95837       -0.70609       -0.00298
| 79>    C        2.65227       -0.92979        0.05328
| 80>    C        1.82422       -0.56507       -1.03973
| 81>    N        1.17973       -0.16253       -1.91479
| 82>    C        2.05848       -1.38659        1.25797
| 83>    N        1.59877       -1.70351        2.27313
| 84> *
| 85> 
| 86> 
| 87>                          ****END OF INPUT****
================================================================================

                       *****************************
                       * Geometry Optimization Run *
                       *****************************

Geometry optimization settings:
Update method            Update   .... BFGS
Choice of coordinates    CoordSys .... Z-matrix Internals
Initial Hessian          InHess   .... Almoef's Model

Convergence Tolerances:
Energy Change            TolE     ....  5.0000e-06 Eh
Max. Gradient            TolMAXG  ....  3.0000e-04 Eh/bohr
RMS Gradient             TolRMSG  ....  1.0000e-04 Eh/bohr
Max. Displacement        TolMAXD  ....  4.0000e-03 bohr
RMS Displacement         TolRMSD  ....  2.0000e-03 bohr
Strict Convergence                ....  False
------------------------------------------------------------------------------
                        ORCA OPTIMIZATION COORDINATE SETUP
------------------------------------------------------------------------------

The optimization will be done in new redundant internal coordinates
Making redundant internal coordinates   ...  (new redundants) done
Evaluating the initial hessian          ...  (Almloef) done
Evaluating the coordinates              ...  done
Calculating the B-matrix                .... done
Calculating the G-matrix                .... done
Diagonalizing the G-matrix              .... done
Small eigenvalue found = 2.360e-03
Small eigenvalue found = 3.290e-03
Small eigenvalue found = 4.374e-03
Small eigenvalue found = 6.635e-03
Small eigenvalue found = 6.994e-03
Small eigenvalue found = 1.185e-02
Small eigenvalue found = 1.264e-02
Small eigenvalue found = 1.799e-02
Small eigenvalue found = 2.221e-02
Small eigenvalue found = 2.933e-02
The first mode is                       ....  251
The number of degrees of freedom        ....  207

    -----------------------------------------------------------------
                    Redundant Internal Coordinates


    -----------------------------------------------------------------
         Definition                    Initial Value    Approx d2E/dq
    -----------------------------------------------------------------
      1. B(C   1,C   0)                  1.5233         0.382921   
      2. B(C   2,C   1)                  1.5285         0.375622   
      3. B(C   3,C   2)                  1.5310         0.372250   
      4. B(N   4,C   3)                  1.5547         0.305541   
      5. B(C   5,N   4)                  1.5521         0.308539   
      6. B(C   6,C   5)                  1.5330         0.369543   
      7. B(C   7,C   6)                  1.5310         0.372145   
      8. B(C   8,C   7)                  1.5204         0.386938   
      9. B(C   9,N   4)                  1.5511         0.309653   
     10. B(C  10,C   9)                  1.5317         0.371276   
     11. B(C  11,C  10)                  1.5315         0.371539   
     12. B(C  12,C  11)                  1.5206         0.386767   
     13. B(C  13,N   4)                  1.5818         0.276581   
     14. B(C  14,C  13)                  1.5335         0.368776   
     15. B(C  15,C  14)                  1.5321         0.370721   
     16. B(C  16,C  15)                  1.5205         0.386789   
     17. B(H  17,C   0)                  1.0948         0.353854   
     18. B(H  18,C   0)                  1.0946         0.354130   
     19. B(H  19,C   0)                  1.0947         0.353907   
     20. B(H  20,C   1)                  1.0956         0.352803   
     21. B(H  21,C   1)                  1.0911         0.358692   
     22. B(H  22,C   2)                  1.0999         0.347269   
     23. B(H  23,C   2)                  1.0919         0.357641   
     24. B(H  24,C   3)                  1.0951         0.353395   
     25. B(H  25,C   3)                  1.0932         0.355837   
     26. B(H  26,C   5)                  1.0965         0.351561   
     27. B(H  27,C   5)                  1.0886         0.361958   
     28. B(H  28,C   6)                  1.0960         0.352217   
     29. B(H  29,C   6)                  1.0947         0.353877   
     30. B(H  30,C   7)                  1.0963         0.351903   
     31. B(H  31,C   7)                  1.0963         0.351877   
     32. B(H  32,C   8)                  1.0947         0.353986   
     33. B(H  33,C   8)                  1.0947         0.353941   
     34. B(H  34,C   8)                  1.0945         0.354237   
     35. B(H  35,C   9)                  1.0964         0.351727   
     36. B(H  36,C   9)                  1.0958         0.352547   
     37. B(H  37,C  10)                  1.0953         0.353167   
     38. B(H  38,C  10)                  1.0914         0.358187   
     39. B(H  39,C  11)                  1.0962         0.351932   
     40. B(H  40,C  11)                  1.0963         0.351902   
     41. B(H  41,C  12)                  1.0947         0.353989   
     42. B(H  42,C  12)                  1.0945         0.354250   
     43. B(H  43,C  12)                  1.0947         0.353916   
     44. B(H  44,C  13)                  1.0961         0.352062   
     45. B(H  45,C  13)                  1.0944         0.354334   
     46. B(H  46,C  14)                  1.0937         0.355271   
     47. B(H  47,C  14)                  1.0947         0.353881   
     48. B(H  48,C  15)                  1.0963         0.351831   
     49. B(H  49,C  15)                  1.0962         0.351964   
     50. B(H  50,C  16)                  1.0947         0.353893   
     51. B(H  51,C  16)                  1.0946         0.354009   
     52. B(H  52,C  16)                  1.0945         0.354232   
     53. B(C  54,N  53)                  1.1585         1.309649   
     54. B(C  55,C  54)                  1.4217         0.556076   
     55. B(C  56,C  55)                  1.4263         0.546872   
     56. B(N  57,C  56)                  1.1616         1.294807   
     57. B(N  57,H  48)                  3.4661         0.000052   
     58. B(N  57,H  46)                  2.9109         0.000401   
     59. B(N  57,H  44)                  3.0651         0.000228   
     60. B(N  57,H  25)                  3.4859         0.000049   
     61. B(N  57,H  24)                  2.7731         0.000666   
     62. B(C  58,C  55)                  1.3499         0.723895   
     63. B(C  59,C  58)                  1.5519         0.344677   
     64. B(C  60,C  59)                  1.3489         0.726569   
     65. B(C  61,C  60)                  1.4231         0.553276   
     66. B(N  62,C  61)                  1.1586         1.309125   
     67. B(C  63,C  60)                  1.4215         0.556611   
     68. B(N  64,C  63)                  1.1589         1.307738   
     69. B(C  65,C  59)                  1.3896         0.625811   
     70. B(C  65,C  58)                  1.3927         0.618641   
     71. B(C  66,C  65)                  1.3263         0.789493   
     72. B(C  67,C  66)                  1.4189         0.561804   
     73. B(N  68,H  20)                  3.2277         0.000125   
     74. B(N  68,H  17)                  3.5093         0.000045   
     75. B(N  68,C  67)                  1.1589         1.307739   
     76. B(C  69,C  66)                  1.4186         0.562406   
     77. B(N  70,C  69)                  1.1586         1.309429   
     78. A(C   1,C   0,H  19)          110.9516         0.324711   
     79. A(C   1,C   0,H  17)          111.0792         0.324703   
     80. A(H  17,C   0,H  19)          108.3700         0.289254   
     81. A(C   1,C   0,H  18)          110.2243         0.324745   
     82. A(H  17,C   0,H  18)          107.9744         0.289282   
     83. A(H  18,C   0,H  19)          108.1346         0.289289   
     84. A(H  20,C   1,H  21)          107.6871         0.289728   
     85. A(C   0,C   1,H  21)          107.4976         0.325429   
     86. A(C   2,C   1,H  21)          111.0878         0.324401   
     87. A(C   2,C   1,H  20)          110.2326         0.323521   
     88. A(C   0,C   1,H  20)          108.9450         0.324545   
     89. A(C   0,C   1,C   2)          111.2705         0.365232   
     90. A(C   3,C   2,H  22)          105.3864         0.322207   
     91. A(C   1,C   2,H  22)          106.6130         0.322683   
     92. A(C   3,C   2,H  23)          112.0327         0.323765   
     93. A(C   1,C   2,H  23)          111.2017         0.324245   
     94. A(H  22,C   2,H  23)          104.4279         0.288879   
     95. A(C   1,C   2,C   3)          116.1501         0.363470   
     96. A(H  24,C   3,H  25)          108.1988         0.289442   
     97. A(N   4,C   3,H  24)          106.8445         0.311055   
     98. A(C   2,C   3,N   4)          119.0496         0.348782   
     99. A(C   2,C   3,H  24)          110.3022         0.323132   
    100. A(C   2,C   3,H  25)          105.8201         0.323497   
    101. A(N   4,C   3,H  25)          106.1498         0.311401   
    102. A(C   3,N   4,C   9)          111.7924         0.336128   
    103. A(C   3,N   4,C  13)          106.2708         0.329891   
    104. A(C   5,N   4,C   9)          113.5180         0.336675   
    105. A(C   3,N   4,C   5)          109.6913         0.335927   
    106. A(C   9,N   4,C  13)          108.1677         0.330621   
    107. A(C   5,N   4,C  13)          107.0166         0.330424   
    108. A(H  26,C   5,H  27)          108.4253         0.289980   
    109. A(N   4,C   5,C   6)          114.3289         0.348927   
    110. A(N   4,C   5,H  27)          107.4187         0.312755   
    111. A(C   6,C   5,H  26)          109.8131         0.322470   
    112. A(N   4,C   5,H  26)          106.9316         0.311284   
    113. A(C   6,C   5,H  27)          109.7295         0.324015   
    114. A(C   5,C   6,C   7)          110.6273         0.362441   
    115. A(H  28,C   6,H  29)          107.3754         0.289040   
    116. A(C   7,C   6,H  29)          109.2499         0.323189   
    117. A(C   5,C   6,H  29)          111.3263         0.322817   
    118. A(C   7,C   6,H  28)          108.1169         0.322940   
    119. A(C   5,C   6,H  28)          110.0358         0.322569   
    120. A(H  30,C   7,H  31)          107.2731         0.288743   
    121. A(C   8,C   7,H  31)          109.0603         0.324961   
    122. A(C   6,C   7,H  31)          109.8485         0.322889   
    123. A(C   8,C   7,H  30)          109.2118         0.324965   
    124. A(C   6,C   7,H  30)          109.8417         0.322893   
    125. A(C   6,C   7,C   8)          111.5049         0.365303   
    126. A(H  33,C   8,H  34)          108.0846         0.289307   
    127. A(C   7,C   8,H  34)          110.2609         0.325318   
    128. A(H  32,C   8,H  33)          108.3105         0.289275   
    129. A(C   7,C   8,H  33)          110.9849         0.325274   
    130. A(C   7,C   8,H  32)          111.0107         0.325281   
    131. A(H  32,C   8,H  34)          108.0834         0.289313   
    132. A(N   4,C   9,H  36)          106.6960         0.311606   
    133. A(C  10,C   9,H  35)          108.4027         0.322742   
    134. A(N   4,C   9,C  10)          115.6220         0.349414   
    135. A(N   4,C   9,H  35)          106.9684         0.311489   
    136. A(H  35,C   9,H  36)          107.9371         0.288807   
    137. A(C  10,C   9,H  36)          110.9106         0.322866   
    138. A(C  11,C  10,H  38)          108.8587         0.323745   
    139. A(C   9,C  10,H  38)          112.1921         0.323707   
    140. A(H  37,C  10,H  38)          106.7527         0.289711   
    141. A(C   9,C  10,C  11)          110.4922         0.362630   
    142. A(C  11,C  10,H  37)          108.1911         0.322996   
    143. A(C   9,C  10,H  37)          110.2053         0.322958   
    144. A(C  12,C  11,H  40)          109.0663         0.324941   
    145. A(H  39,C  11,H  40)          107.2958         0.288750   
    146. A(C  10,C  11,H  40)          109.8252         0.322806   
    147. A(C  12,C  11,H  39)          109.1756         0.324946   
    148. A(C  10,C  11,H  39)          109.8713         0.322811   
    149. A(C  10,C  11,C  12)          111.5067         0.365173   
    150. A(H  42,C  12,H  43)          108.0803         0.289306   
    151. A(H  41,C  12,H  43)          108.3093         0.289272   
    152. A(C  11,C  12,H  43)          110.9886         0.325246   
    153. A(H  41,C  12,H  42)          108.0926         0.289315   
    154. A(C  11,C  12,H  41)          111.0039         0.325257   
    155. A(C  11,C  12,H  42)          110.2605         0.325297   
    156. A(H  44,C  13,H  45)          109.0028         0.289078   
    157. A(C  14,C  13,H  45)          108.5674         0.322776   
    158. A(N   4,C  13,H  45)          106.6955         0.306236   
    159. A(C  14,C  13,H  44)          111.0054         0.322435   
    160. A(N   4,C  13,H  44)          106.6317         0.305920   
    161. A(N   4,C  13,C  14)          114.7391         0.342454   
    162. A(C  15,C  14,H  47)          108.8929         0.322986   
    163. A(C  13,C  14,H  47)          110.9976         0.322708   
    164. A(C  15,C  14,H  46)          107.9091         0.323194   
    165. A(C  13,C  14,H  46)          111.0434         0.322915   
    166. A(C  13,C  14,C  15)          110.3465         0.362076   
    167. A(H  46,C  14,H  47)          107.5432         0.289432   
    168. A(H  48,C  15,H  49)          107.2708         0.288745   
    169. A(C  16,C  15,H  49)          109.1265         0.324954   
    170. A(C  14,C  15,H  49)          109.8673         0.322699   
    171. A(C  16,C  15,H  48)          109.1220         0.324934   
    172. A(C  14,C  15,H  48)          109.8398         0.322679   
    173. A(C  14,C  15,C  16)          111.5133         0.365039   
    174. A(H  51,C  16,H  52)          108.0994         0.289315   
    175. A(H  50,C  16,H  52)          108.0651         0.289300   
    176. A(C  15,C  16,H  52)          110.2579         0.325297   
    177. A(H  50,C  16,H  51)          108.3149         0.289272   
    178. A(C  15,C  16,H  51)          111.0054         0.325263   
    179. A(C  15,C  16,H  50)          110.9923         0.325246   
    180. A(C   0,H  17,N  68)          115.7044         0.114926   
    181. A(C   1,H  20,N  68)          133.1991         0.121744   
    182. A(C   3,H  24,N  57)          132.6297         0.136802   
    183. A(C   3,H  25,N  57)           87.4183         0.115470   
    184. A(C  13,H  44,N  57)          121.2370         0.126467   
    185. A(C  14,H  46,N  57)          124.9817         0.131681   
    186. A(C  15,H  48,N  57)          114.1747         0.115839   
    187. L(N  53,C  54,C  55,C  56, 2) 179.9296         0.484479   
    188. L(N  53,C  54,C  55,C  56, 1) 179.5846         0.484479   
    189. A(C  56,C  55,C  58)          123.3832         0.436372   
    190. A(C  54,C  55,C  58)          117.9044         0.437686   
    191. A(C  54,C  55,C  56)          118.5736         0.416242   
    192. A(C  55,C  56,N  57)          174.9239         0.481973   
    193. A(H  44,N  57,H  48)           46.1767         0.094034   
    194. A(H  25,N  57,H  48)           77.1951         0.092548   
    195. A(H  24,N  57,H  48)           88.9261         0.095417   
    196. A(H  48,N  57,C  56)          141.1058         0.130332   
    197. A(H  44,N  57,H  46)           49.3695         0.096988   
    198. A(H  25,N  57,H  46)           35.9108         0.094630   
    199. A(H  24,N  57,H  46)           60.2055         0.099182   
    200. A(H  46,N  57,C  56)          158.3178         0.154585   
    201. A(H  25,N  57,H  44)           54.6685         0.093952   
    202. A(H  24,N  57,H  44)           48.0604         0.097957   
    203. A(H  44,N  57,C  56)          152.2908         0.146692   
    204. A(H  24,N  57,H  25)           30.2604         0.095313   
    205. A(H  25,N  57,C  56)          140.3286         0.129660   
    206. A(H  24,N  57,C  56)          128.2973         0.162542   
    207. A(H  46,N  57,H  48)           45.0033         0.094723   
    208. A(C  59,C  58,C  65)           56.0008         0.390978   
    209. A(C  55,C  58,C  65)          121.1141         0.446203   
    210. A(C  55,C  58,C  59)          122.8601         0.401910   
    211. A(C  60,C  59,C  65)          123.2481         0.447435   
    212. A(C  58,C  59,C  65)           56.1930         0.391767   
    213. A(C  58,C  59,C  60)          121.6125         0.402172   
    214. A(C  61,C  60,C  63)          119.3024         0.417177   
    215. A(C  59,C  60,C  63)          117.3093         0.438053   
    216. A(C  59,C  60,C  61)          123.3867         0.437579   
    217. L(C  60,C  61,N  62,C  59, 2) 181.7102         0.483992   
    218. L(C  60,C  61,N  62,C  59, 1) 175.7367         0.483992   
    219. L(C  60,C  63,N  64,C  59, 2) 180.2947         0.484435   
    220. L(C  60,C  63,N  64,C  59, 1) 177.4287         0.484435   
    221. A(C  59,C  65,C  66)          145.8098         0.454237   
    222. A(C  58,C  65,C  66)          146.3357         0.453286   
    223. A(C  58,C  65,C  59)           67.8062         0.434624   
    224. A(C  65,C  66,C  69)          120.1666         0.445512   
    225. A(C  65,C  66,C  67)          119.9109         0.445426   
    226. A(C  67,C  66,C  69)          119.5142         0.419088   
    227. A(C  66,C  67,N  68)          174.5200         0.485267   
    228. A(H  17,N  68,H  20)           43.2603         0.093242   
    229. A(H  20,N  68,C  67)          107.8669         0.139509   
    230. A(H  17,N  68,C  67)           92.5800         0.128964   
    231. L(C  66,C  69,N  70,C  67, 2) 186.4025         0.485479   
    232. L(C  66,C  69,N  70,C  67, 1) 181.2952         0.485479   
    233. D(H  21,C   1,C   0,H  18)     57.1551         0.011677   
    234. D(H  20,C   1,C   0,H  19)   -179.0211         0.011677   
    235. D(H  20,C   1,C   0,H  18)    -59.2692         0.011677   
    236. D(C   2,C   1,C   0,H  17)    -61.3704         0.011677   
    237. D(C   2,C   1,C   0,H  18)    178.9957         0.011677   
    238. D(C   2,C   1,C   0,H  19)     59.2437         0.011677   
    239. D(H  21,C   1,C   0,H  17)    176.7891         0.011677   
    240. D(H  21,C   1,C   0,H  19)    -62.5969         0.011677   
    241. D(H  20,C   1,C   0,H  17)     60.3648         0.011677   
    242. D(C   3,C   2,C   1,C   0)    163.1034         0.011259   
    243. D(H  22,C   2,C   1,H  21)    165.7724         0.011259   
    244. D(C   3,C   2,C   1,H  21)    -77.1660         0.011259   
    245. D(H  23,C   2,C   1,H  21)     52.5295         0.011259   
    246. D(H  22,C   2,C   1,H  20)    -74.9415         0.011259   
    247. D(C   3,C   2,C   1,H  20)     42.1201         0.011259   
    248. D(H  23,C   2,C   1,H  20)    171.8156         0.011259   
    249. D(H  23,C   2,C   1,C   0)    -67.2011         0.011259   
    250. D(H  22,C   2,C   1,C   0)     46.0418         0.011259   
    251. D(H  25,C   3,C   2,H  23)     69.7182         0.011069   
    252. D(H  25,C   3,C   2,H  22)    -43.2457         0.011069   
    253. D(H  24,C   3,C   2,H  23)   -173.4778         0.011069   
    254. D(H  25,C   3,C   2,C   1)   -160.9858         0.011069   
    255. D(H  24,C   3,C   2,H  22)     73.5583         0.011069   
    256. D(N   4,C   3,C   2,H  22)   -162.4606         0.011069   
    257. D(N   4,C   3,C   2,C   1)     79.7993         0.011069   
    258. D(N   4,C   3,C   2,H  23)    -49.4967         0.011069   
    259. D(H  24,C   3,C   2,C   1)    -44.1818         0.011069   
    260. D(C   5,N   4,C   3,H  25)    174.4047         0.008787   
    261. D(C   9,N   4,C   3,C   2)     60.2863         0.008787   
    262. D(C   5,N   4,C   3,H  24)     59.1023         0.008787   
    263. D(C   5,N   4,C   3,C   2)    -66.5499         0.008787   
    264. D(C  13,N   4,C   3,H  25)     59.0483         0.008787   
    265. D(C  13,N   4,C   3,C   2)    178.0937         0.008787   
    266. D(C  13,N   4,C   3,H  24)    -56.2541         0.008787   
    267. D(C   9,N   4,C   3,H  25)    -58.7591         0.008787   
    268. D(C   9,N   4,C   3,H  24)   -174.0615         0.008787   
    269. D(H  27,C   5,N   4,C  13)   -173.9483         0.008943   
    270. D(H  27,C   5,N   4,C   9)    -54.6864         0.008943   
    271. D(H  27,C   5,N   4,C   3)     71.1709         0.008943   
    272. D(H  26,C   5,N   4,C  13)     69.8342         0.008943   
    273. D(H  26,C   5,N   4,C   3)    -45.0466         0.008943   
    274. D(H  26,C   5,N   4,C   9)   -170.9039         0.008943   
    275. D(C   6,C   5,N   4,C  13)    -51.9338         0.008943   
    276. D(C   6,C   5,N   4,C   9)     67.3282         0.008943   
    277. D(C   6,C   5,N   4,C   3)   -166.8146         0.008943   
    278. D(H  29,C   6,C   5,H  27)     74.6973         0.010918   
    279. D(H  29,C   6,C   5,H  26)   -166.2172         0.010918   
    280. D(H  29,C   6,C   5,N   4)    -46.0440         0.010918   
    281. D(H  28,C   6,C   5,H  27)   -166.3813         0.010918   
    282. D(H  28,C   6,C   5,H  26)    -47.2958         0.010918   
    283. D(H  28,C   6,C   5,N   4)     72.8774         0.010918   
    284. D(C   7,C   6,C   5,H  26)     72.1061         0.010918   
    285. D(C   7,C   6,C   5,N   4)   -167.7207         0.010918   
    286. D(C   7,C   6,C   5,H  27)    -46.9794         0.010918   
    287. D(H  31,C   7,C   6,H  28)   -179.5441         0.011063   
    288. D(H  31,C   7,C   6,C   5)     59.9035         0.011063   
    289. D(H  30,C   7,C   6,H  29)    179.2458         0.011063   
    290. D(H  30,C   7,C   6,H  28)     62.6900         0.011063   
    291. D(C   8,C   7,C   6,H  29)     58.0356         0.011063   
    292. D(H  30,C   7,C   6,C   5)    -57.8625         0.011063   
    293. D(C   8,C   7,C   6,H  28)    -58.5203         0.011063   
    294. D(H  31,C   7,C   6,H  29)    -62.9882         0.011063   
    295. D(C   8,C   7,C   6,C   5)   -179.0727         0.011063   
    296. D(H  34,C   8,C   7,H  31)    -58.4686         0.011911   
    297. D(H  34,C   8,C   7,C   6)   -179.9512         0.011911   
    298. D(H  33,C   8,C   7,H  31)     61.2663         0.011911   
    299. D(H  33,C   8,C   7,H  30)    178.2074         0.011911   
    300. D(H  33,C   8,C   7,C   6)    -60.2163         0.011911   
    301. D(H  32,C   8,C   7,H  31)   -178.2186         0.011911   
    302. D(H  34,C   8,C   7,H  30)     58.4725         0.011911   
    303. D(H  32,C   8,C   7,H  30)    -61.2775         0.011911   
    304. D(H  32,C   8,C   7,C   6)     60.2988         0.011911   
    305. D(H  36,C   9,N   4,C  13)    -84.1841         0.009002   
    306. D(H  36,C   9,N   4,C   5)    157.2143         0.009002   
    307. D(H  36,C   9,N   4,C   3)     32.4811         0.009002   
    308. D(H  35,C   9,N   4,C  13)     31.1365         0.009002   
    309. D(H  35,C   9,N   4,C   5)    -87.4652         0.009002   
    310. D(H  35,C   9,N   4,C   3)    147.8017         0.009002   
    311. D(C  10,C   9,N   4,C  13)    151.9601         0.009002   
    312. D(C  10,C   9,N   4,C   5)     33.3585         0.009002   
    313. D(C  10,C   9,N   4,C   3)    -91.3747         0.009002   
    314. D(H  38,C  10,C   9,H  36)    -72.1476         0.011015   
    315. D(H  38,C  10,C   9,H  35)    169.5207         0.011015   
    316. D(H  38,C  10,C   9,N   4)     49.4756         0.011015   
    317. D(H  37,C  10,C   9,H  36)    169.0463         0.011015   
    318. D(H  37,C  10,C   9,H  35)     50.7145         0.011015   
    319. D(H  37,C  10,C   9,N   4)    -69.3306         0.011015   
    320. D(C  11,C  10,C   9,H  36)     49.5297         0.011015   
    321. D(C  11,C  10,C   9,H  35)    -68.8021         0.011015   
    322. D(C  11,C  10,C   9,N   4)    171.1528         0.011015   
    323. D(H  40,C  11,C  10,H  38)     63.8034         0.011030   
    324. D(H  40,C  11,C  10,C   9)    -59.8218         0.011030   
    325. D(H  39,C  11,C  10,H  38)   -178.3992         0.011030   
    326. D(H  39,C  11,C  10,C   9)     57.9756         0.011030   
    327. D(C  12,C  11,C  10,H  37)     58.4359         0.011030   
    328. D(C  12,C  11,C  10,C   9)    179.1615         0.011030   
    329. D(C  12,C  11,C  10,H  38)    -57.2133         0.011030   
    330. D(H  39,C  11,C  10,H  37)    -62.7500         0.011030   
    331. D(H  40,C  11,C  10,H  37)    179.4527         0.011030   
    332. D(H  43,C  12,C  11,H  40)    -61.2352         0.011901   
    333. D(H  43,C  12,C  11,C  10)     60.2233         0.011901   
    334. D(H  42,C  12,C  11,H  40)     58.4964         0.011901   
    335. D(H  42,C  12,C  11,H  39)    -58.4549         0.011901   
    336. D(H  42,C  12,C  11,C  10)    179.9550         0.011901   
    337. D(H  41,C  12,C  11,H  40)    178.2533         0.011901   
    338. D(H  43,C  12,C  11,H  39)   -178.1865         0.011901   
    339. D(H  41,C  12,C  11,H  39)     61.3019         0.011901   
    340. D(H  41,C  12,C  11,C  10)    -60.2882         0.011901   
    341. D(H  45,C  13,N   4,C   9)    -59.3371         0.007377   
    342. D(H  45,C  13,N   4,C   5)     63.3217         0.007377   
    343. D(H  45,C  13,N   4,C   3)   -179.5228         0.007377   
    344. D(H  44,C  13,N   4,C   9)   -175.7208         0.007377   
    345. D(H  44,C  13,N   4,C   5)    -53.0620         0.007377   
    346. D(H  44,C  13,N   4,C   3)     64.0935         0.007377   
    347. D(C  14,C  13,N   4,C   9)     60.9429         0.007377   
    348. D(C  14,C  13,N   4,C   5)   -176.3983         0.007377   
    349. D(C  14,C  13,N   4,C   3)    -59.2428         0.007377   
    350. D(H  47,C  14,C  13,H  45)     66.3361         0.010876   
    351. D(H  47,C  14,C  13,H  44)   -173.8673         0.010876   
    352. D(H  47,C  14,C  13,N   4)    -52.9033         0.010876   
    353. D(H  46,C  14,C  13,H  45)   -174.0862         0.010876   
    354. D(H  46,C  14,C  13,H  44)    -54.2896         0.010876   
    355. D(H  46,C  14,C  13,N   4)     66.6744         0.010876   
    356. D(C  15,C  14,C  13,H  45)    -54.4772         0.010876   
    357. D(C  15,C  14,C  13,H  44)     65.3194         0.010876   
    358. D(C  15,C  14,C  13,N   4)   -173.7166         0.010876   
    359. D(C  16,C  15,C  14,C  13)   -178.7658         0.010984   
    360. D(H  49,C  15,C  14,H  46)   -178.4039         0.010984   
    361. D(H  49,C  15,C  14,C  13)     60.1086         0.010984   
    362. D(H  48,C  15,C  14,H  47)   -179.7274         0.010984   
    363. D(H  48,C  15,C  14,H  46)     63.8229         0.010984   
    364. D(H  48,C  15,C  14,C  13)    -57.6646         0.010984   
    365. D(C  16,C  15,C  14,H  47)     59.1714         0.010984   
    366. D(H  49,C  15,C  14,H  47)    -61.9542         0.010984   
    367. D(C  16,C  15,C  14,H  46)    -57.2783         0.010984   
    368. D(H  52,C  16,C  15,H  49)    -58.2857         0.011903   
    369. D(H  52,C  16,C  15,H  48)     58.6394         0.011903   
    370. D(H  52,C  16,C  15,C  14)   -179.8419         0.011903   
    371. D(H  51,C  16,C  15,H  49)     61.4789         0.011903   
    372. D(H  51,C  16,C  15,H  48)    178.4040         0.011903   
    373. D(H  51,C  16,C  15,C  14)    -60.0774         0.011903   
    374. D(H  50,C  16,C  15,H  49)   -177.9989         0.011903   
    375. D(H  50,C  16,C  15,H  48)    -61.0739         0.011903   
    376. D(H  50,C  16,C  15,C  14)     60.4448         0.011903   
    377. D(N  68,H  17,C   0,H  19)   -173.7981         0.116410   
    378. D(N  68,H  17,C   0,H  18)     69.2961         0.116410   
    379. D(N  68,H  17,C   0,C   1)    -51.6711         0.116410   
    380. D(N  68,H  20,C   1,H  21)   -156.1886         0.115571   
    381. D(N  68,H  20,C   1,C   2)     82.4778         0.115571   
    382. D(N  68,H  20,C   1,C   0)    -39.8855         0.115571   
    383. D(N  57,H  24,C   3,H  25)    -15.8235         0.116043   
    384. D(N  57,H  24,C   3,N   4)     98.0964         0.116043   
    385. D(N  57,H  24,C   3,C   2)   -131.1393         0.116043   
    386. D(N  57,H  25,C   3,H  24)      9.1931         0.118001   
    387. D(N  57,H  25,C   3,N   4)   -105.1857         0.118001   
    388. D(N  57,H  25,C   3,C   2)    127.4077         0.118001   
    389. D(N  57,H  44,C  13,H  45)    155.6025         0.114983   
    390. D(N  57,H  44,C  13,C  14)     36.0659         0.114983   
    391. D(N  57,H  44,C  13,N   4)    -89.5641         0.114983   
    392. D(N  57,H  46,C  14,H  47)    168.8867         0.117545   
    393. D(N  57,H  46,C  14,C  15)    -73.7875         0.117545   
    394. D(N  57,H  46,C  14,C  13)     47.2664         0.117545   
    395. D(N  57,H  48,C  15,H  49)   -148.3643         0.114800   
    396. D(N  57,H  48,C  15,C  16)     93.5392         0.114800   
    397. D(N  57,H  48,C  15,C  14)    -28.9894         0.114800   
    398. D(N  57,C  56,C  55,C  58)    -37.6179         0.018581   
    399. D(N  57,C  56,C  55,C  54)    138.0048         0.018581   
    400. D(H  48,N  57,C  56,C  55)    167.0924         0.195724   
    401. D(H  46,N  57,C  56,C  55)     73.0944         0.195724   
    402. D(H  44,N  57,C  56,C  55)   -103.5722         0.195724   
    403. D(H  25,N  57,C  56,C  55)      6.7600         0.195724   
    404. D(H  24,N  57,C  56,C  55)    -32.7169         0.195724   
    405. D(H  46,N  57,H  48,C  15)      3.0732         0.001500   
    406. D(H  25,N  57,H  48,C  15)     21.7566         0.001500   
    407. D(H  24,N  57,H  48,C  15)     49.9124         0.001500   
    408. D(C  56,N  57,H  48,C  15)   -145.5146         0.001500   
    409. D(H  44,N  57,H  46,C  14)    -23.1452         0.001500   
    410. D(H  25,N  57,H  46,C  14)   -106.5795         0.001500   
    411. D(H  24,N  57,H  46,C  14)    -81.5775         0.001500   
    412. D(C  56,N  57,H  46,C  14)    158.8964         0.001500   
    413. D(H  48,N  57,H  44,C  13)    -75.5709         0.001500   
    414. D(H  46,N  57,H  44,C  13)    -13.4653         0.001500   
    415. D(H  25,N  57,H  44,C  13)     32.1144         0.001500   
    416. D(H  24,N  57,H  44,C  13)     70.2625         0.001500   
    417. D(C  56,N  57,H  44,C  13)    164.9127         0.001500   
    418. D(H  48,N  57,H  46,C  14)     41.2404         0.001500   
    419. D(H  48,N  57,H  25,C   3)    103.7441         0.001500   
    420. D(H  46,N  57,H  25,C   3)    126.4635         0.001500   
    421. D(H  44,N  57,H  25,C   3)     58.9217         0.001500   
    422. D(H  44,N  57,H  48,C  15)     74.6094         0.001500   
    423. D(H  24,N  57,H  25,C   3)     -6.8306         0.001500   
    424. D(C  56,N  57,H  25,C   3)    -88.7719         0.001500   
    425. D(H  48,N  57,H  24,C   3)    -56.6591         0.001500   
    426. D(H  46,N  57,H  24,C   3)    -20.1900         0.001500   
    427. D(H  44,N  57,H  24,C   3)    -80.5661         0.001500   
    428. D(H  25,N  57,H  24,C   3)      9.2772         0.001500   
    429. D(C  56,N  57,H  24,C   3)    135.6287         0.001500   
    430. D(C  65,C  58,C  55,C  56)     26.0872         0.037124   
    431. D(C  65,C  58,C  55,C  54)   -149.5629         0.037124   
    432. D(C  59,C  58,C  55,C  56)    -41.1026         0.037124   
    433. D(C  59,C  58,C  55,C  54)    143.2473         0.037124   
    434. D(C  65,C  59,C  58,C  55)    107.8392         0.008372   
    435. D(C  60,C  59,C  58,C  65)    111.2630         0.008372   
    436. D(C  60,C  59,C  58,C  55)   -140.8978         0.008372   
    437. D(C  63,C  60,C  59,C  65)   -147.0925         0.037424   
    438. D(C  63,C  60,C  59,C  58)    145.0998         0.037424   
    439. D(C  61,C  60,C  59,C  65)     32.4347         0.037424   
    440. D(C  61,C  60,C  59,C  58)    -35.3731         0.037424   
    441. D(C  66,C  65,C  59,C  60)     74.0455         0.027132   
    442. D(C  66,C  65,C  59,C  58)   -177.5742         0.027132   
    443. D(C  58,C  65,C  59,C  60)   -108.3803         0.027132   
    444. D(C  66,C  65,C  58,C  59)    177.5409         0.026476   
    445. D(C  66,C  65,C  58,C  55)     66.6037         0.026476   
    446. D(C  59,C  65,C  58,C  55)   -110.9372         0.026476   
    447. D(C  69,C  66,C  65,C  59)      0.5202         0.044914   
    448. D(C  69,C  66,C  65,C  58)   -175.4258         0.044914   
    449. D(C  67,C  66,C  65,C  59)    173.1511         0.044914   
    450. D(C  67,C  66,C  65,C  58)     -2.7949         0.044914   
    451. D(N  68,C  67,C  66,C  69)    111.0665         0.019639   
    452. D(N  68,C  67,C  66,C  65)    -61.6127         0.019639   
    453. D(H  20,N  68,C  67,C  66)    -49.8206         0.153672   
    454. D(H  17,N  68,C  67,C  66)    -91.1087         0.153672   
    455. D(H  17,N  68,H  20,C   1)     14.1166         0.001500   
    456. D(C  67,N  68,H  20,C   1)    -60.0086         0.001500   
    457. D(H  20,N  68,H  17,C   0)     25.7599         0.001500   
    458. D(C  67,N  68,H  17,C   0)    139.3543         0.001500   
    -----------------------------------------------------------------

Number of atoms                         .... 71
Number of degrees of freedom            .... 458

         *************************************************************
         *                GEOMETRY OPTIMIZATION CYCLE   1            *
         *************************************************************
---------------------------------
CARTESIAN COORDINATES (ANGSTROEM)
---------------------------------
  C     -2.203310    1.193390   -0.027190
  C     -1.302130    2.421390   -0.011280
  C     -0.615390    2.587690    1.344110
  C      0.598480    3.520100    1.375590
  N      0.368820    5.056620    1.434980
  C     -0.288090    5.538660    0.113990
  C     -0.274090    7.059210   -0.080120
  C     -1.194490    7.464060   -1.234700
  C     -1.178210    8.967690   -1.459530
  C     -0.418070    5.472560    2.705280
  C     -1.940910    5.530820    2.551630
  C     -2.609810    5.735230    3.914070
  C     -4.122720    5.817030    3.785640
  C      1.804500    5.716910    1.505880
  C      2.649900    5.286790    2.710860
  C      3.948810    6.097340    2.766830
  C      4.822300    5.670810    3.936070
  H     -1.626290    0.279280    0.145890
  H     -2.699550    1.100780   -0.998380
  H     -2.976110    1.264940    0.744870
  H     -0.553980    2.323860   -0.805660
  H     -1.923340    3.287230   -0.245470
  H     -0.229530    1.596710    1.624820
  H     -1.338140    2.829680    2.125930
  H      1.246700    3.329200    0.513820
  H      1.150720    3.259900    2.282510
  H      0.253340    5.054130   -0.707270
  H     -1.314880    5.177090    0.109780
  H      0.740670    7.398030   -0.318310
  H     -0.587220    7.579740    0.830630
  H     -0.881010    6.958230   -2.155390
  H     -2.221440    7.145050   -1.021500
  H     -0.170520    9.316710   -1.706570
  H     -1.517610    9.501380   -0.566030
  H     -1.842570    9.234340   -2.287410
  H     -0.060660    6.468870    2.991160
  H     -0.131410    4.771210    3.496890
  H     -2.223970    6.366690    1.902890
  H     -2.343890    4.626120    2.092950
  H     -2.237460    6.656260    4.377550
  H     -2.351520    4.906160    4.583200
  H     -4.417500    6.655830    3.147050
  H     -4.579320    5.962150    4.769660
  H     -4.529960    4.896880    3.354500
  H      2.309320    5.471990    0.564230
  H      1.650620    6.799240    1.556690
  H      2.916640    4.228150    2.645620
  H      2.101020    5.431710    3.646910
  H      4.509210    5.967040    1.833610
  H      3.718030    7.164800    2.861540
  H      5.100900    4.615390    3.852940
  H      4.301550    5.815160    4.888030
  H      5.741910    6.263850    3.958220
  N      6.268420    1.640790   -3.353450
  C      5.752430    1.375570   -2.350640
  C      5.116140    1.059930   -1.119060
  C      4.533090    2.118430   -0.361530
  N      3.978580    2.917860    0.273170
  C      5.022710   -0.241130   -0.771480
  C      5.160230   -0.733200    0.693920
  C      5.812960   -1.873710    0.998500
  C      5.792620   -3.032210    0.172270
  N      5.710820   -3.937880   -0.545740
  C      6.544500   -1.900970    2.216960
  N      7.128470   -1.873130    3.217630
  C      3.958370   -0.706090   -0.002980
  C      2.652270   -0.929790    0.053280
  C      1.824220   -0.565070   -1.039730
  N      1.179730   -0.162530   -1.914790
  C      2.058480   -1.386590    1.257970
  N      1.598770   -1.703510    2.273130

----------------------------
CARTESIAN COORDINATES (A.U.)
----------------------------
  NO LB      ZA    FRAG     MASS         X           Y           Z
   0 C     6.0000    0    12.011   -4.163652    2.255180   -0.051382
   1 C     6.0000    0    12.011   -2.460669    4.575764   -0.021316
   2 C     6.0000    0    12.011   -1.162919    4.890025    2.540000
   3 C     6.0000    0    12.011    1.130963    6.652025    2.599488
   4 N     7.0000    0    14.007    0.696969    9.555627    2.711719
   5 C     6.0000    0    12.011   -0.544411   10.466551    0.215410
   6 C     6.0000    0    12.011   -0.517955   13.339974   -0.151405
   7 C     6.0000    0    12.011   -2.257259   14.105029   -2.333245
   8 C     6.0000    0    12.011   -2.226494   16.946478   -2.758112
   9 C     6.0000    0    12.011   -0.790038   10.341640    5.112238
  10 C     6.0000    0    12.011   -3.667788   10.451735    4.821882
  11 C     6.0000    0    12.011   -4.931826   10.838014    7.396520
  12 C     6.0000    0    12.011   -7.790812   10.992594    7.153823
  13 C     6.0000    0    12.011    3.410011   10.803394    2.845701
  14 C     6.0000    0    12.011    5.007585    9.990585    5.122783
  15 C     6.0000    0    12.011    7.462169   11.522303    5.228551
  16 C     6.0000    0    12.011    9.112826   10.716278    7.438094
  17 H     1.0000    0     1.008   -3.073243    0.527763    0.275692
  18 H     1.0000    0     1.008   -5.101410    2.080173   -1.886665
  19 H     1.0000    0     1.008   -5.624033    2.390390    1.407600
  20 H     1.0000    0     1.008   -1.046870    4.391459   -1.522477
  21 H     1.0000    0     1.008   -3.634586    6.211964   -0.463871
  22 H     1.0000    0     1.008   -0.433749    3.017345    3.070465
  23 H     1.0000    0     1.008   -2.528718    5.347320    4.017425
  24 H     1.0000    0     1.008    2.355922    6.291276    0.970979
  25 H     1.0000    0     1.008    2.174546    6.160318    4.313319
  26 H     1.0000    0     1.008    0.478743    9.550922   -1.336547
  27 H     1.0000    0     1.008   -2.484763    9.783282    0.207454
  28 H     1.0000    0     1.008    1.399663   13.980251   -0.601519
  29 H     1.0000    0     1.008   -1.109685   14.323633    1.569663
  30 H     1.0000    0     1.008   -1.664868   13.149149   -4.073097
  31 H     1.0000    0     1.008   -4.197913   13.502188   -1.930355
  32 H     1.0000    0     1.008   -0.322236   17.606030   -3.224950
  33 H     1.0000    0     1.008   -2.867867   17.955006   -1.069642
  34 H     1.0000    0     1.008   -3.481953   17.450374   -4.322578
  35 H     1.0000    0     1.008   -0.114631   12.224393    5.652473
  36 H     1.0000    0     1.008   -0.248329    9.016280    6.608164
  37 H     1.0000    0     1.008   -4.202694   12.031300    3.595941
  38 H     1.0000    0     1.008   -4.429310    8.742100    3.955102
  39 H     1.0000    0     1.008   -4.228187   12.578508    8.272371
  40 H     1.0000    0     1.008   -4.443729    9.271299    8.660993
  41 H     1.0000    0     1.008   -8.347865   12.577696    5.947063
  42 H     1.0000    0     1.008   -8.653661   11.266831    9.013351
  43 H     1.0000    0     1.008   -8.560384    9.253762    6.339086
  44 H     1.0000    0     1.008    4.363982   10.340563    1.066240
  45 H     1.0000    0     1.008    3.119220   12.848702    2.941718
  46 H     1.0000    0     1.008    5.511651    7.990046    4.999497
  47 H     1.0000    0     1.008    3.970352   10.264444    6.891661
  48 H     1.0000    0     1.008    8.521172   11.276071    3.465021
  49 H     1.0000    0     1.008    7.026058   13.539510    5.407527
  50 H     1.0000    0     1.008    9.639304    8.721823    7.281001
  51 H     1.0000    0     1.008    8.128751   10.989060    9.237038
  52 H     1.0000    0     1.008   10.850637   11.836961    7.479952
  53 N     7.0000    0    14.007   11.845597    3.100644   -6.337102
  54 C     6.0000    0    12.011   10.870517    2.599451   -4.442066
  55 C     6.0000    0    12.011    9.668103    2.002977   -2.114717
  56 C     6.0000    0    12.011    8.566299    4.003253   -0.683193
  57 N     7.0000    0    14.007    7.518427    5.513956    0.516216
  58 C     6.0000    0    12.011    9.491546   -0.455670   -1.457886
  59 C     6.0000    0    12.011    9.751421   -1.385547    1.311319
  60 C     6.0000    0    12.011   10.984902   -3.540799    1.886892
  61 C     6.0000    0    12.011   10.946465   -5.730046    0.325543
  62 N     7.0000    0    14.007   10.791886   -7.441515   -1.031299
  63 C     6.0000    0    12.011   12.367313   -3.592313    4.189447
  64 N     7.0000    0    14.007   13.470856   -3.539703    6.080440
  65 C     6.0000    0    12.011    7.480235   -1.334317   -0.005631
  66 C     6.0000    0    12.011    5.012064   -1.757048    0.100685
  67 C     6.0000    0    12.011    3.447276   -1.067828   -1.964805
  68 N     7.0000    0    14.007    2.229367   -0.307137   -3.618429
  69 C     6.0000    0    12.011    3.889963   -2.620275    2.377219
  70 N     7.0000    0    14.007    3.021237   -3.219167    4.295593

--------------------------------
INTERNAL COORDINATES (ANGSTROEM)
--------------------------------
 C      0   0   0     0.000000000000     0.00000000     0.00000000
 C      1   0   0     1.523273619709     0.00000000     0.00000000
 C      2   1   0     1.528512207900   111.27052155     0.00000000
 C      3   2   1     1.530966941315   116.15012741   163.10335706
 N      4   3   2     1.554723318826   119.04956361    79.79934593
 C      5   4   3     1.552065684757   109.69128833   293.45013138
 C      6   5   4     1.532953683123   114.32888697   193.18543093
 C      7   6   5     1.531043650227   110.62727024   192.27934597
 C      8   7   6     1.520433077843   111.50489540   180.92731225
 C      5   4   3     1.551084796425   111.79242595    60.28629855
 C     10   5   4     1.531680193676   115.62203916   268.62529035
 C     11  10   5     1.531487320124   110.49215511   171.15280587
 C     12  11  10     1.520553245697   111.50670966   179.16146348
 C      5   4   3     1.581830192056   106.27076054   178.09373087
 C     14   5   4     1.533519212400   114.73913007   300.75721698
 C     15  14   5     1.532087181429   110.34648012   186.28338820
 C     16  15  14     1.520537667603   111.51330955   181.23419122
 H      1   2   3     1.094762923605   111.07920766   298.62963449
 H      1   2   3     1.094550485725   110.22426515   178.99569441
 H      1   2   3     1.094721830467   110.95159850    59.24370478
 H      2   1   3     1.095572958684   108.94501929   121.73514636
 H      2   1   3     1.091066325115   107.49756842   238.15944129
 H      3   2   1     1.099876085793   106.61298758    46.04177986
 H      3   2   1     1.091865025999   111.20172597   292.79889637
 H      4   3   2     1.095116209039   110.30224160   315.81819476
 H      4   3   2     1.093241484760   105.82007937   199.01424864
 H      6   5   4     1.096532604805   106.93164448   314.95341409
 H      6   5   4     1.088599234383   107.41870025    71.17088227
 H      7   6   5     1.096025239719   110.03583251    72.87744160
 H      7   6   5     1.094745376926   111.32625331   313.95604351
 H      8   7   6     1.096268112918   109.84167960   302.13751980
 H      8   7   6     1.096288247953   109.84852660    59.90348565
 H      9   8   7     1.094661069966   111.01074013    60.29879114
 H      9   8   7     1.094696134140   110.98485572   299.78365965
 H      9   8   7     1.094468695989   110.26092404   180.04883097
 H     10   5   4     1.096404532369   106.96843866   147.80166789
 H     10   5   4     1.095770126532   106.69597130    32.48110973
 H     11  10   5     1.095292293454   110.20533377   290.66941115
 H     11  10   5     1.091449638233   112.19209378    49.47557371
 H     12  11  10     1.096245635704   109.87125587    57.97563589
 H     12  11  10     1.096269011648   109.82519282   300.17824762
 H     13  12  11     1.094658794557   111.00386331   299.71180484
 H     13  12  11     1.094458192349   110.26049834   179.95495339
 H     13  12  11     1.094715551959   110.98860012    60.22332337
 H     14   5   4     1.096144954511   106.63170357    64.09349726
 H     14   5   4     1.094394325369   106.69546153   180.47717666
 H     15  14   5     1.093675059055   111.04343256    66.67438996
 H     15  14   5     1.094742281681   110.99759789   307.09671031
 H     16  15  14     1.096323774439   109.83975549   302.33542162
 H     16  15  14     1.096220892019   109.86730263    60.10864168
 H     17  16  15     1.094732813658   110.99228254    60.44480421
 H     17  16  15     1.094643926855   111.00536919   299.92263540
 H     17  16  15     1.094472300335   110.25793292   180.15807287
 N     25   4   3     6.559281770087   164.15357810   245.95682449
 C     54  25   4     1.158540126452    37.59093131    31.12477496
 C     55  54  25     1.421718280849   179.58302022   330.49182573
 C     56  55  54     1.426261285109   118.57359024   354.98589348
 N     57  56  55     1.161642696788   174.92385717   138.00477056
 C     56  55  54     1.349925236782   117.90441063   170.85032255
 C     59  56  55     1.551915524537   122.86006407   143.24726567
 C     60  59  56     1.348921231726   121.61245085   219.10222524
 C     61  60  59     1.423092399846   123.38665036   324.62694725
 N     62  61  60     1.158649105208   175.65413477   348.04099036
 C     61  60  59     1.421456524414   117.30932228   145.09980069
 N     64  61  60     1.158937649488   177.42406506   356.42662004
 C     60  59  56     1.389558210979    56.19301720   107.83918894
 C     66  60  59     1.326312213470   145.80982694   182.42577726
 C     67  66  60     1.418928589112   119.91089911   173.15109241
 N     68  67  66     1.158937364701   174.52003832   298.38734061
 C     67  66  60     1.418636951514   120.16657570     0.52018424
 N     70  67  66     1.158585946790   176.58449598    57.62410157

---------------------------
INTERNAL COORDINATES (A.U.)
---------------------------
 C      0   0   0     0.000000000000     0.00000000     0.00000000
 C      1   0   0     2.878569968276     0.00000000     0.00000000
 C      2   1   0     2.888469465287   111.27052155     0.00000000
 C      3   2   1     2.893108239173   116.15012741   163.10335706
 N      4   3   2     2.938001286601   119.04956361    79.79934593
 C      5   4   3     2.932979086048   109.69128833   293.45013138
 C      6   5   4     2.896862637088   114.32888697   193.18543093
 C      7   6   5     2.893253198008   110.62727024   192.27934597
 C      8   7   6     2.873202122079   111.50489540   180.92731225
 C      5   4   3     2.931125475732   111.79242595    60.28629855
 C     10   5   4     2.894456090800   115.62203916   268.62529035
 C     11  10   5     2.894091612607   110.49215511   171.15280587
 C     12  11  10     2.873429206413   111.50670966   179.16146348
 C      5   4   3     2.989225853354   106.27076054   178.09373087
 C     14   5   4     2.897931332543   114.73913007   300.75721698
 C     15  14   5     2.895225186193   110.34648012   186.28338820
 C     16  15  14     2.873399768081   111.51330955   181.23419122
 H      1   2   3     2.068802107184   111.07920766   298.62963449
 H      1   2   3     2.068400657770   110.22426515   178.99569441
 H      1   2   3     2.068724452407   110.95159850    59.24370478
 H      2   1   3     2.070332851643   108.94501929   121.73514636
 H      2   1   3     2.061816548411   107.49756842   238.15944129
 H      3   2   1     2.078464583399   106.61298758    46.04177986
 H      3   2   1     2.063325874345   111.20172597   292.79889637
 H      4   3   2     2.069469719902   110.30224160   315.81819476
 H      4   3   2     2.065927004438   105.82007937   199.01424864
 H      6   5   4     2.072146319996   106.93164448   314.95341409
 H      6   5   4     2.057154422581   107.41870025    71.17088227
 H      7   6   5     2.071187538933   110.03583251    72.87744160
 H      7   6   5     2.068768948766   111.32625331   313.95604351
 H      8   7   6     2.071646502765   109.84167960   302.13751980
 H      8   7   6     2.071684552468   109.84852660    59.90348565
 H      9   8   7     2.068609631702   111.01074013    60.29879114
 H      9   8   7     2.068675893386   110.98485572   299.78365965
 H      9   8   7     2.068246097569   110.26092404   180.04883097
 H     10   5   4     2.071904298168   106.96843866   147.80166789
 H     10   5   4     2.070705444878   106.69597130    32.48110973
 H     11  10   5     2.069802471223   110.20533377   290.66941115
 H     11  10   5     2.062540905229   112.19209378    49.47557371
 H     12  11  10     2.071604026987   109.87125587    57.97563589
 H     12  11  10     2.071648201120   109.82519282   300.17824762
 H     13  12  11     2.068605331800   111.00386331   299.71180484
 H     13  12  11     2.068226248566   110.26049834   179.95495339
 H     13  12  11     2.068712587746   110.98860012    60.22332337
 H     14   5   4     2.071413767105   106.63170357    64.09349726
 H     14   5   4     2.068105557465   106.69546153   180.47717666
 H     15  14   5     2.066746341115   111.04343256    66.67438996
 H     15  14   5     2.068763099601   110.99759789   307.09671031
 H     16  15  14     2.071751687796   109.83975549   302.33542162
 H     16  15  14     2.071557268200   109.86730263    60.10864168
 H     17  16  15     2.068745207631   110.99228254    60.44480421
 H     17  16  15     2.068577235916   111.00536919   299.92263540
 H     17  16  15     2.068252908795   110.25793292   180.15807287
 N     25   4   3    12.395246180687   164.15357810   245.95682449
 C     54  25   4     2.189323554153    37.59093131    31.12477496
 C     55  54  25     2.686658190394   179.58302022   330.49182573
 C     56  55  54     2.695243224270   118.57359024   354.98589348
 N     57  56  55     2.195186562398   174.92385717   138.00477056
 C     56  55  54     2.550988998786   117.90441063   170.85032255
 C     59  56  55     2.932695324356   122.86006407   143.24726567
 C     60  59  56     2.549091704193   121.61245085   219.10222524
 C     61  60  59     2.689254898974   123.38665036   324.62694725
 N     62  61  60     2.189529494157   175.65413477   348.04099036
 C     61  60  59     2.686163542419   117.30932228   145.09980069
 N     64  61  60     2.190074763822   177.42406506   356.42662004
 C     60  59  56     2.625884465892    56.19301720   107.83918894
 C     66  60  59     2.506366851533   145.80982694   182.42577726
 C     67  66  60     2.681386437013   119.91089911   173.15109241
 N     68  67  66     2.190074225653   174.52003832   298.38734061
 C     67  66  60     2.680835321822   120.16657570     0.52018424
 N     70  67  66     2.189410142044   176.58449598    57.62410157

---------------------
BASIS SET INFORMATION
---------------------
There are 3 groups of distinct atoms

 Group   1 Type C   : 11s6p2d1f contracted to 5s3p2d1f pattern {62111/411/11/1}
 Group   2 Type N   : 11s6p2d1f contracted to 5s3p2d1f pattern {62111/411/11/1}
 Group   3 Type H   : 5s1p contracted to 3s1p pattern {311/1}

Atom   0C    basis set group =>   1
Atom   1C    basis set group =>   1
Atom   2C    basis set group =>   1
Atom   3C    basis set group =>   1
Atom   4N    basis set group =>   2
Atom   5C    basis set group =>   1
Atom   6C    basis set group =>   1
Atom   7C    basis set group =>   1
Atom   8C    basis set group =>   1
Atom   9C    basis set group =>   1
Atom  10C    basis set group =>   1
Atom  11C    basis set group =>   1
Atom  12C    basis set group =>   1
Atom  13C    basis set group =>   1
Atom  14C    basis set group =>   1
Atom  15C    basis set group =>   1
Atom  16C    basis set group =>   1
Atom  17H    basis set group =>   3
Atom  18H    basis set group =>   3
Atom  19H    basis set group =>   3
Atom  20H    basis set group =>   3
Atom  21H    basis set group =>   3
Atom  22H    basis set group =>   3
Atom  23H    basis set group =>   3
Atom  24H    basis set group =>   3
Atom  25H    basis set group =>   3
Atom  26H    basis set group =>   3
Atom  27H    basis set group =>   3
Atom  28H    basis set group =>   3
Atom  29H    basis set group =>   3
Atom  30H    basis set group =>   3
Atom  31H    basis set group =>   3
Atom  32H    basis set group =>   3
Atom  33H    basis set group =>   3
Atom  34H    basis set group =>   3
Atom  35H    basis set group =>   3
Atom  36H    basis set group =>   3
Atom  37H    basis set group =>   3
Atom  38H    basis set group =>   3
Atom  39H    basis set group =>   3
Atom  40H    basis set group =>   3
Atom  41H    basis set group =>   3
Atom  42H    basis set group =>   3
Atom  43H    basis set group =>   3
Atom  44H    basis set group =>   3
Atom  45H    basis set group =>   3
Atom  46H    basis set group =>   3
Atom  47H    basis set group =>   3
Atom  48H    basis set group =>   3
Atom  49H    basis set group =>   3
Atom  50H    basis set group =>   3
Atom  51H    basis set group =>   3
Atom  52H    basis set group =>   3
Atom  53N    basis set group =>   2
Atom  54C    basis set group =>   1
Atom  55C    basis set group =>   1
Atom  56C    basis set group =>   1
Atom  57N    basis set group =>   2
Atom  58C    basis set group =>   1
Atom  59C    basis set group =>   1
Atom  60C    basis set group =>   1
Atom  61C    basis set group =>   1
Atom  62N    basis set group =>   2
Atom  63C    basis set group =>   1
Atom  64N    basis set group =>   2
Atom  65C    basis set group =>   1
Atom  66C    basis set group =>   1
Atom  67C    basis set group =>   1
Atom  68N    basis set group =>   2
Atom  69C    basis set group =>   1
Atom  70N    basis set group =>   2
---------------------------------
AUXILIARY/J BASIS SET INFORMATION
---------------------------------
There are 3 groups of distinct atoms

 Group   1 Type C   : 12s5p4d2f1g contracted to 6s4p3d1f1g pattern {711111/2111/211/2/1}
 Group   2 Type N   : 12s5p4d2f1g contracted to 6s4p3d1f1g pattern {711111/2111/211/2/1}
 Group   3 Type H   : 5s2p1d contracted to 3s1p1d pattern {311/2/1}

Atom   0C    basis set group =>   1
Atom   1C    basis set group =>   1
Atom   2C    basis set group =>   1
Atom   3C    basis set group =>   1
Atom   4N    basis set group =>   2
Atom   5C    basis set group =>   1
Atom   6C    basis set group =>   1
Atom   7C    basis set group =>   1
Atom   8C    basis set group =>   1
Atom   9C    basis set group =>   1
Atom  10C    basis set group =>   1
Atom  11C    basis set group =>   1
Atom  12C    basis set group =>   1
Atom  13C    basis set group =>   1
Atom  14C    basis set group =>   1
Atom  15C    basis set group =>   1
Atom  16C    basis set group =>   1
Atom  17H    basis set group =>   3
Atom  18H    basis set group =>   3
Atom  19H    basis set group =>   3
Atom  20H    basis set group =>   3
Atom  21H    basis set group =>   3
Atom  22H    basis set group =>   3
Atom  23H    basis set group =>   3
Atom  24H    basis set group =>   3
Atom  25H    basis set group =>   3
Atom  26H    basis set group =>   3
Atom  27H    basis set group =>   3
Atom  28H    basis set group =>   3
Atom  29H    basis set group =>   3
Atom  30H    basis set group =>   3
Atom  31H    basis set group =>   3
Atom  32H    basis set group =>   3
Atom  33H    basis set group =>   3
Atom  34H    basis set group =>   3
Atom  35H    basis set group =>   3
Atom  36H    basis set group =>   3
Atom  37H    basis set group =>   3
Atom  38H    basis set group =>   3
Atom  39H    basis set group =>   3
Atom  40H    basis set group =>   3
Atom  41H    basis set group =>   3
Atom  42H    basis set group =>   3
Atom  43H    basis set group =>   3
Atom  44H    basis set group =>   3
Atom  45H    basis set group =>   3
Atom  46H    basis set group =>   3
Atom  47H    basis set group =>   3
Atom  48H    basis set group =>   3
Atom  49H    basis set group =>   3
Atom  50H    basis set group =>   3
Atom  51H    basis set group =>   3
Atom  52H    basis set group =>   3
Atom  53N    basis set group =>   2
Atom  54C    basis set group =>   1
Atom  55C    basis set group =>   1
Atom  56C    basis set group =>   1
Atom  57N    basis set group =>   2
Atom  58C    basis set group =>   1
Atom  59C    basis set group =>   1
Atom  60C    basis set group =>   1
Atom  61C    basis set group =>   1
Atom  62N    basis set group =>   2
Atom  63C    basis set group =>   1
Atom  64N    basis set group =>   2
Atom  65C    basis set group =>   1
Atom  66C    basis set group =>   1
Atom  67C    basis set group =>   1
Atom  68N    basis set group =>   2
Atom  69C    basis set group =>   1
Atom  70N    basis set group =>   2
[file orca_main/mainfcts.cpp, line 625]: Error : multiplicity (2) is even and number of electrons (254) is even -> impossible

[file orca_main/mainfcts.cpp, line 625]: Error : multiplicity (2) is even and number of electrons (254) is even -> impossible

