Warning: no access to tty (Bad file descriptor).
Thus no job control in this shell.

                                 *****************
                                 * O   R   C   A *
                                 *****************

           --- An Ab Initio, DFT and Semiempirical electronic structure package ---

                  #######################################################
                  #                        -***-                        #
                  #          Department of theory and spectroscopy      #
                  #               Directorship: Frank Neese             #
                  #        Max Planck Institute fuer Kohlenforschung    #
                  #                Kaiser Wilhelm Platz 1               #
                  #                 D-45470 Muelheim/Ruhr               #
                  #                      Germany                        #
                  #                                                     #
                  #                  All rights reserved                #
                  #                        -***-                        #
                  #######################################################


                         Program Version 4.2.1 -  RELEASE  -


 With contributions from (in alphabetic order):
   Daniel Aravena         : Magnetic Suceptibility
   Michael Atanasov       : Ab Initio Ligand Field Theory (pilot matlab implementation)
   Alexander A. Auer      : GIAO ZORA, VPT2
   Ute Becker             : Parallelization
   Giovanni Bistoni       : ED, misc. LED, open-shell LED, HFLD
   Martin Brehm           : Molecular dynamics
   Dmytro Bykov           : SCF Hessian
   Vijay G. Chilkuri      : MRCI spin determinant printing, contributions to CSF-ICE
   Dipayan Datta          : RHF DLPNO-CCSD density
   Achintya Kumar Dutta   : EOM-CC, STEOM-CC
   Dmitry Ganyushin       : Spin-Orbit,Spin-Spin,Magnetic field MRCI
   Miquel Garcia          : C-PCM Hessian, Gaussian charge scheme
   Yang Guo               : DLPNO-NEVPT2, CIM, IAO-localization
   Andreas Hansen         : Spin unrestricted coupled pair/coupled cluster methods
   Benjamin Helmich-Paris : CASSCF linear response (MC-RPA)
   Lee Huntington         : MR-EOM, pCC
   Robert Izsak           : Overlap fitted RIJCOSX, COSX-SCS-MP3, EOM
   Christian Kollmar      : KDIIS, OOCD, Brueckner-CCSD(T), CCSD density
   Simone Kossmann        : Meta GGA functionals, TD-DFT gradient, OOMP2, MP2 Hessian
   Martin Krupicka        : AUTO-CI
   Lucas Lang             : DCDCAS
   Dagmar Lenk            : GEPOL surface, SMD
   Dimitrios Liakos       : Extrapolation schemes; Compound Job, initial MDCI parallelization
   Dimitrios Manganas     : Further ROCIS development; embedding schemes
   Dimitrios Pantazis     : SARC Basis sets
   Taras Petrenko         : DFT Hessian,TD-DFT gradient, ASA, ECA, R-Raman, ABS, FL, XAS/XES, NRVS
   Peter Pinski           : DLPNO-MP2, DLPNO-MP2 Gradient
   Christoph Reimann      : Effective Core Potentials
   Marius Retegan         : Local ZFS, SOC
   Christoph Riplinger    : Optimizer, TS searches, QM/MM, DLPNO-CCSD(T), (RO)-DLPNO pert. Triples
   Tobias Risthaus        : Range-separated hybrids, TD-DFT gradient, RPA, STAB
   Michael Roemelt        : Original ROCIS implementation
   Masaaki Saitow         : Open-shell DLPNO-CCSD energy and density
   Barbara Sandhoefer     : DKH picture change effects
   Avijit Sen             : IP-ROCIS
   Kantharuban Sivalingam : CASSCF convergence, NEVPT2, FIC-MRCI
   Bernardo de Souza      : ESD, SOC TD-DFT
   Georgi Stoychev        : AutoAux, RI-MP2 NMR
   Willem Van den Heuvel  : Paramagnetic NMR
   Boris Wezisla          : Elementary symmetry handling
   Frank Wennmohs         : Technical directorship


 We gratefully acknowledge several colleagues who have allowed us to
 interface, adapt or use parts of their codes:
   Stefan Grimme, W. Hujo, H. Kruse,             : VdW corrections, initial TS optimization,
                  C. Bannwarth                     DFT functionals, gCP, sTDA/sTD-DF
   Ed Valeev, F. Pavosevic, A. Kumar             : LibInt (2-el integral package), F12 methods
   Garnet Chan, S. Sharma, J. Yang, R. Olivares  : DMRG
   Ulf Ekstrom                                   : XCFun DFT Library
   Mihaly Kallay                                 : mrcc  (arbitrary order and MRCC methods)
   Andreas Klamt, Michael Diedenhofen            : otool_cosmo (COSMO solvation model)
   Jiri Pittner, Ondrej Demel                    : Mk-CCSD
   Frank Weinhold                                : gennbo (NPA and NBO analysis)
   Christopher J. Cramer and Donald G. Truhlar   : smd solvation model
   Lars Goerigk                                  : TD-DFT with DH, B97 family of functionals
   V. Asgeirsson, H. Jonsson                     : NEB implementation
   FAccTs GmbH                                   : IRC, NEB, NEB-TS, Multilevel, MM, QM/MM, CI optimization
   S Lehtola, MJT Oliveira, MAL Marques          : LibXC Library


 Your calculation uses the libint2 library for the computation of 2-el integrals
 For citations please refer to: http://libint.valeyev.net

 Your ORCA version has been built with support for libXC version: 4.2.3
 For citations please refer to: https://tddft.org/programs/libxc/

 This ORCA versions uses:
   CBLAS   interface :  Fast vector & matrix operations
   LAPACKE interface :  Fast linear algebra routines
   SCALAPACK package :  Parallel linear algebra routines


Your calculation utilizes the atom-pairwise dispersion correction
with the zero-damping scheme (D30)
Cite in your paper:
S.Grimme, J.Antony, S.Ehrlich and H.Krieg, J.Chem.Phys., 132, (2010), 154104 
   

XCFun DFT library Copyright 2009-2010 Ulf Ekstrom and contributors.
See http://admol.org/xcfun for more information. This is free soft-
ware; see the source code for copying conditions. There is ABSOLUTELY
NO WARRANTY; not even for MERCHANTABILITY or FITNESS FOR A PARTICULAR
PURPOSE. For details see the documentation. Scientific users of this 
library should cite U. Ekstrom, L. Visscher, R. Bast, A. J. Thorvald-
sen and K. Ruud; J.Chem.Theor.Comp. 2010, DOI: 10.1021/ct100117s
XCFun Version 0.99 
----- Orbital basis set information -----
Your calculation utilizes the basis: def2-TZVP
   F. Weigend and R. Ahlrichs, Phys. Chem. Chem. Phys. 7, 3297 (2005).

----- AuxJ basis set information -----
Your calculation utilizes the auxiliary basis: def2/J
   F. Weigend, Phys. Chem. Chem. Phys. 8, 1057 (2006).

================================================================================
                                        WARNINGS
                       Please study these warnings very carefully!
================================================================================


WARNING: Geometry Optimization
  ===> : Switching off AutoStart
         For restart on a previous wavefunction, please use MOREAD

INFO   : the flag for use of LIBINT has been found!

================================================================================
                                       INPUT FILE
================================================================================
NAME = F3-R-TCNQ.inp
|  1> # avogadro generated ORCA input file 
|  2> # Basic Mode
|  3> # 
|  4> ! wB97X-D3 OPT def2-TZVP def2/J CPCM
|  5> %cpcm
|  6>   epsilon 3
|  7> end
|  8> %pal
|  9>  nprocs 8
| 10> end 
| 11> 
| 12> * xyz 0 1
| 13>    F        0.97706       -0.15118       -0.17012
| 14>    C        2.33519       -0.17475       -0.13988
| 15>    C        2.95161        1.07471       -0.11490
| 16>    F        2.12493        2.15255       -0.12367
| 17>    C        4.35611        1.21103       -0.08208
| 18>    C        5.11773        0.01368       -0.07578
| 19>    F        6.47566        0.07502       -0.04461
| 20>    C        4.51117       -1.26798       -0.10078
| 21>    C        5.44962       -2.46138       -0.09034
| 22>    C        3.07569       -1.39169       -0.13406
| 23>    C        2.40283       -2.60230       -0.15991
| 24>    C        3.02374       -3.90702       -0.15719
| 25>    N        3.45692       -4.98098       -0.15715
| 26>    C        0.95766       -2.70934       -0.19311
| 27>    N       -0.18902       -2.86801       -0.22044
| 28>    C        4.95046        2.45106       -0.05690
| 29>    C        4.16447        3.75206       -0.06211
| 30>    N        3.51242        4.83134       -0.06643
| 31>    C        6.38381        2.64962       -0.02229
| 32>    N        7.51862        2.87694        0.00576
| 33>    H        6.52488       -2.19513       -0.06391
| 34>    H        5.31104       -3.05944       -1.01467
| 35>    H        5.27008       -3.07566        0.81614
| 36> *
| 37> 
| 38> 
| 39>                          ****END OF INPUT****
================================================================================

                       *****************************
                       * Geometry Optimization Run *
                       *****************************

Geometry optimization settings:
Update method            Update   .... BFGS
Choice of coordinates    CoordSys .... Z-matrix Internals
Initial Hessian          InHess   .... Almoef's Model

Convergence Tolerances:
Energy Change            TolE     ....  5.0000e-06 Eh
Max. Gradient            TolMAXG  ....  3.0000e-04 Eh/bohr
RMS Gradient             TolRMSG  ....  1.0000e-04 Eh/bohr
Max. Displacement        TolMAXD  ....  4.0000e-03 bohr
RMS Displacement         TolRMSD  ....  2.0000e-03 bohr
Strict Convergence                ....  False
------------------------------------------------------------------------------
                        ORCA OPTIMIZATION COORDINATE SETUP
------------------------------------------------------------------------------

The optimization will be done in new redundant internal coordinates
Making redundant internal coordinates   ...  (new redundants) done
Evaluating the initial hessian          ...  (Almloef) done
Evaluating the coordinates              ...  done
Calculating the B-matrix                .... done
Calculating the G-matrix                .... done
Diagonalizing the G-matrix              .... done
Small eigenvalue found = 1.094e-02
Small eigenvalue found = 1.869e-02
The first mode is                       ....   36
The number of degrees of freedom        ....   63

    -----------------------------------------------------------------
                    Redundant Internal Coordinates


    -----------------------------------------------------------------
         Definition                    Initial Value    Approx d2E/dq
    -----------------------------------------------------------------
      1. B(C   1,F   0)                  1.3587         0.583378   
      2. B(C   2,C   1)                  1.3935         0.616891   
      3. B(F   3,C   2)                  1.3584         0.583987   
      4. B(C   4,C   2)                  1.4115         0.577386   
      5. B(C   5,C   4)                  1.4191         0.561518   
      6. B(F   6,C   5)                  1.3597         0.581237   
      7. B(C   7,C   5)                  1.4182         0.563382   
      8. B(C   8,C   7)                  1.5182         0.390092   
      9. B(C   9,C   7)                  1.4412         0.517697   
     10. B(C   9,C   1)                  1.4245         0.550339   
     11. B(C  10,C   9)                  1.3853         0.635737   
     12. B(C  11,C  10)                  1.4449         0.510619   
     13. B(N  12,C  11)                  1.1580         1.312102   
     14. B(C  13,C  10)                  1.4495         0.502107   
     15. B(N  14,C  13)                  1.1579         1.312596   
     16. B(C  15,C   4)                  1.3753         0.659367   
     17. B(C  16,C  15)                  1.5200         0.387550   
     18. B(N  17,C  16)                  1.2610         0.898964   
     19. B(C  18,C  15)                  1.4475         0.505916   
     20. B(N  19,C  18)                  1.1577         1.313727   
     21. B(H  20,C   8)                  1.1080         0.336998   
     22. B(H  21,C   8)                  1.1096         0.335053   
     23. B(H  22,C   8)                  1.1096         0.335045   
     24. A(F   0,C   1,C   2)          115.2794         0.424276   
     25. A(C   2,C   1,C   9)          122.4093         0.424500   
     26. A(F   0,C   1,C   9)          122.3114         0.415724   
     27. A(F   3,C   2,C   4)          121.9434         0.419369   
     28. A(C   1,C   2,F   3)          116.2407         0.424355   
     29. A(C   1,C   2,C   4)          121.8159         0.428163   
     30. A(C   2,C   4,C  15)          121.1656         0.433313   
     31. A(C   2,C   4,C   5)          116.9147         0.421020   
     32. A(C   5,C   4,C  15)          121.9197         0.431149   
     33. A(F   6,C   5,C   7)          117.9263         0.417188   
     34. A(C   4,C   5,C   7)          122.2024         0.419180   
     35. A(C   4,C   5,F   6)          119.8713         0.416942   
     36. A(C   8,C   7,C   9)          123.2547         0.387285   
     37. A(C   5,C   7,C   9)          120.2649         0.413163   
     38. A(C   5,C   7,C   8)          116.4804         0.393050   
     39. A(C   7,C   8,H  20)          114.2751         0.323095   
     40. A(H  20,C   8,H  22)          105.6969         0.284614   
     41. A(H  21,C   8,H  22)          111.2185         0.284358   
     42. A(C   7,C   8,H  22)          109.9228         0.322787   
     43. A(H  20,C   8,H  21)          105.6983         0.284615   
     44. A(C   7,C   8,H  21)          109.9218         0.322788   
     45. A(C   1,C   9,C  10)          119.6034         0.426793   
     46. A(C   1,C   9,C   7)          116.3929         0.411449   
     47. A(C   7,C   9,C  10)          124.0038         0.422150   
     48. A(C  11,C  10,C  13)          111.2103         0.403841   
     49. A(C   9,C  10,C  13)          123.3143         0.419853   
     50. A(C   9,C  10,C  11)          125.4754         0.421114   
     51. L(C  10,C  11,N  12,C  13, 2) 179.9631         0.477083   
     52. L(C  10,C  11,N  12,C  13, 1) 176.5155         0.477083   
     53. L(C  10,C  13,N  14,C  11, 2) 180.0287         0.475642   
     54. L(C  10,C  13,N  14,C  11, 1) 176.3586         0.475642   
     55. A(C  16,C  15,C  18)          113.2490         0.385296   
     56. A(C   4,C  15,C  18)          123.5083         0.423168   
     57. A(C   4,C  15,C  16)          123.2427         0.403605   
     58. L(C  15,C  16,N  17,C  18, 2) 180.0002         0.423693   
     59. L(C  15,C  16,N  17,C  18, 1) 180.0004         0.423693   
     60. L(C  15,C  18,N  19,C  16, 1) 176.5605         0.476380   
     61. L(C  15,C  18,N  19,C  16, 2) 180.0029         0.476380   
     62. D(F   3,C   2,C   1,C   9)   -179.9894         0.026317   
     63. D(F   3,C   2,C   1,F   0)      0.0065         0.026317   
     64. D(C   4,C   2,C   1,C   9)     -0.0013         0.026317   
     65. D(C   4,C   2,C   1,F   0)    179.9946         0.026317   
     66. D(C  15,C   4,C   2,C   1)   -179.9620         0.022895   
     67. D(C   5,C   4,C   2,F   3)    179.9963         0.022895   
     68. D(C  15,C   4,C   2,F   3)      0.0254         0.022895   
     69. D(C   5,C   4,C   2,C   1)      0.0089         0.022895   
     70. D(C   7,C   5,C   4,C  15)    179.9595         0.021602   
     71. D(F   6,C   5,C   4,C  15)     -0.0257         0.021602   
     72. D(C   7,C   5,C   4,C   2)     -0.0111         0.021602   
     73. D(F   6,C   5,C   4,C   2)   -179.9963         0.021602   
     74. D(C   8,C   7,C   5,C   4)   -179.9934         0.021752   
     75. D(C   8,C   7,C   5,F   6)     -0.0079         0.021752   
     76. D(C   9,C   7,C   5,C   4)      0.0058         0.021752   
     77. D(C   9,C   7,C   5,F   6)    179.9913         0.021752   
     78. D(H  22,C   8,C   7,C   9)    -61.3728         0.011321   
     79. D(H  22,C   8,C   7,C   5)    118.6263         0.011321   
     80. D(H  21,C   8,C   7,C   9)     61.3672         0.011321   
     81. D(H  21,C   8,C   7,C   5)   -118.6337         0.011321   
     82. D(H  20,C   8,C   7,C   9)    179.9977         0.011321   
     83. D(H  20,C   8,C   7,C   5)     -0.0032         0.011321   
     84. D(C  10,C   9,C   7,C   8)     -0.0007         0.018274   
     85. D(C  10,C   9,C   7,C   5)   -179.9998         0.018274   
     86. D(C   1,C   9,C   7,C   8)   -179.9988         0.018274   
     87. D(C   1,C   9,C   7,C   5)      0.0021         0.018274   
     88. D(C  10,C   9,C   1,C   2)    179.9975         0.020720   
     89. D(C  10,C   9,C   1,F   0)      0.0019         0.020720   
     90. D(C   7,C   9,C   1,C   2)     -0.0043         0.020720   
     91. D(C   7,C   9,C   1,F   0)   -180.0000         0.020720   
     92. D(C  11,C  10,C   9,C   1)   -179.9823         0.028056   
     93. D(C  13,C  10,C   9,C   7)    179.9930         0.028056   
     94. D(C  13,C  10,C   9,C   1)     -0.0090         0.028056   
     95. D(C  11,C  10,C   9,C   7)      0.0197         0.028056   
     96. D(C  18,C  15,C   4,C   5)      0.0046         0.030334   
     97. D(C  18,C  15,C   4,C   2)    179.9740         0.030334   
     98. D(C  16,C  15,C   4,C   5)   -179.9692         0.030334   
     99. D(C  16,C  15,C   4,C   2)      0.0002         0.030334   
    -----------------------------------------------------------------

Number of atoms                         .... 23
Number of degrees of freedom            .... 99

         *************************************************************
         *                GEOMETRY OPTIMIZATION CYCLE   1            *
         *************************************************************
---------------------------------
CARTESIAN COORDINATES (ANGSTROEM)
---------------------------------
  F      0.977060   -0.151180   -0.170120
  C      2.335190   -0.174750   -0.139880
  C      2.951610    1.074710   -0.114900
  F      2.124930    2.152550   -0.123670
  C      4.356110    1.211030   -0.082080
  C      5.117730    0.013680   -0.075780
  F      6.475660    0.075020   -0.044610
  C      4.511170   -1.267980   -0.100780
  C      5.449620   -2.461380   -0.090340
  C      3.075690   -1.391690   -0.134060
  C      2.402830   -2.602300   -0.159910
  C      3.023740   -3.907020   -0.157190
  N      3.456920   -4.980980   -0.157150
  C      0.957660   -2.709340   -0.193110
  N     -0.189020   -2.868010   -0.220440
  C      4.950460    2.451060   -0.056900
  C      4.164470    3.752060   -0.062110
  N      3.512420    4.831340   -0.066430
  C      6.383810    2.649620   -0.022290
  N      7.518620    2.876940    0.005760
  H      6.524880   -2.195130   -0.063910
  H      5.311040   -3.059440   -1.014670
  H      5.270080   -3.075660    0.816140

----------------------------
CARTESIAN COORDINATES (A.U.)
----------------------------
  NO LB      ZA    FRAG     MASS         X           Y           Z
   0 F     9.0000    0    18.998    1.846376   -0.285689   -0.321480
   1 C     6.0000    0    12.011    4.412870   -0.330230   -0.264335
   2 C     6.0000    0    12.011    5.577735    2.030908   -0.217130
   3 F     9.0000    0    18.998    4.015536    4.067730   -0.233702
   4 C     6.0000    0    12.011    8.231855    2.288515   -0.155109
   5 C     6.0000    0    12.011    9.671108    0.025851   -0.143203
   6 F     9.0000    0    18.998   12.237224    0.141767   -0.084301
   7 C     6.0000    0    12.011    8.524876   -2.396135   -0.190447
   8 C     6.0000    0    12.011   10.298289   -4.651334   -0.170718
   9 C     6.0000    0    12.011    5.812212   -2.629913   -0.253337
  10 C     6.0000    0    12.011    4.540691   -4.917634   -0.302186
  11 C     6.0000    0    12.011    5.714041   -7.383198   -0.297046
  12 N     7.0000    0    14.007    6.532632   -9.412688   -0.296970
  13 C     6.0000    0    12.011    1.809715   -5.119911   -0.364925
  14 N     7.0000    0    14.007   -0.357196   -5.419753   -0.416571
  15 C     6.0000    0    12.011    9.355014    4.631832   -0.107525
  16 C     6.0000    0    12.011    7.869708    7.090366   -0.117371
  17 N     7.0000    0    14.007    6.637512    9.129909   -0.125535
  18 C     6.0000    0    12.011   12.063653    5.007056   -0.042122
  19 N     7.0000    0    14.007   14.208133    5.436629    0.010885
  20 H     1.0000    0     1.008   12.330236   -4.148195   -0.120772
  21 H     1.0000    0     1.008   10.036411   -5.781504   -1.917448
  22 H     1.0000    0     1.008    9.959008   -5.812155    1.542281

--------------------------------
INTERNAL COORDINATES (ANGSTROEM)
--------------------------------
 F      0   0   0     0.000000000000     0.00000000     0.00000000
 C      1   0   0     1.358671078444     0.00000000     0.00000000
 C      2   1   0     1.393466148997   115.27937017     0.00000000
 F      3   2   1     1.358387205807   116.24066254     0.00000000
 C      3   2   1     1.411481684189   121.81590835   179.99463615
 C      5   3   2     1.419067206618   116.91470116     0.00000000
 F      6   5   3     1.359672037441   119.87131332   180.00366658
 C      6   5   3     1.418165148775   122.20240472     0.00000000
 C      8   6   5     1.518222959944   116.48041712   180.00660669
 C      2   1   3     1.424541008887   122.31137681   179.99590028
 C     10   2   1     1.385274476124   119.60338294     0.00000000
 C     11  10   2     1.444932837505   125.47537860   180.01770234
 N     12  11  10     1.158030653998   176.51544343   180.34908014
 C     11  10   2     1.449508927361   123.31430245     0.00000000
 N     14  11  10     1.157928374382   176.35859670   179.74526557
 C      5   3   2     1.375340087324   121.16560293   180.03798898
 C     16   5   3     1.520002771116   123.24266955     0.00000000
 N     17  16   5     1.260965179258   179.99957749    14.53800986
 C     16   5   3     1.447451604787   123.50833080   179.97398310
 N     19  16   5     1.157693794144   176.56054791   179.99403877
 H      9   8   6     1.108048588736   114.27514432     0.00000000
 H      9   8   6     1.109624318812   109.92176021   241.36628401
 H      9   8   6     1.109630803646   109.92278533   118.62633076

---------------------------
INTERNAL COORDINATES (A.U.)
---------------------------
 F      0   0   0     0.000000000000     0.00000000     0.00000000
 C      1   0   0     2.567516244338     0.00000000     0.00000000
 C      2   1   0     2.633269398494   115.27937017     0.00000000
 F      3   2   1     2.566979802798   116.24066254     0.00000000
 C      3   2   1     2.667313826162   121.81590835   179.99463615
 C      5   3   2     2.681648386138   116.91470116     0.00000000
 F      6   5   3     2.569407782715   119.87131332   180.00366658
 C      6   5   3     2.679943743856   122.20240472     0.00000000
 C      8   6   5     2.869025604525   116.48041712   180.00660669
 C      2   1   3     2.691992373336   122.31137681   179.99590028
 C     10   2   1     2.617789380185   119.60338294     0.00000000
 C     11  10   2     2.730527344794   125.47537860   180.01770234
 N     12  11  10     2.188360790743   176.51544343   180.34908014
 C     11  10   2     2.739174901387   123.31430245     0.00000000
 N     14  11  10     2.188167510279   176.35859670   179.74526557
 C      5   3   2     2.599016106045   121.16560293   180.03798898
 C     16   5   3     2.872388960210   123.24266955     0.00000000
 N     17  16   5     2.382878853208   179.99957749    14.53800986
 C     16   5   3     2.735287125152   123.50833080   179.97398310
 N     19  16   5     2.187724217873   176.56054791   179.99403877
 H      9   8   6     2.093908375789   114.27514432     0.00000000
 H      9   8   6     2.096886074094   109.92176021   241.36628401
 H      9   8   6     2.096898328654   109.92278533   118.62633076

---------------------
BASIS SET INFORMATION
---------------------
There are 4 groups of distinct atoms

 Group   1 Type F   : 11s6p2d1f contracted to 5s3p2d1f pattern {62111/411/11/1}
 Group   2 Type C   : 11s6p2d1f contracted to 5s3p2d1f pattern {62111/411/11/1}
 Group   3 Type N   : 11s6p2d1f contracted to 5s3p2d1f pattern {62111/411/11/1}
 Group   4 Type H   : 5s1p contracted to 3s1p pattern {311/1}

Atom   0F    basis set group =>   1
Atom   1C    basis set group =>   2
Atom   2C    basis set group =>   2
Atom   3F    basis set group =>   1
Atom   4C    basis set group =>   2
Atom   5C    basis set group =>   2
Atom   6F    basis set group =>   1
Atom   7C    basis set group =>   2
Atom   8C    basis set group =>   2
Atom   9C    basis set group =>   2
Atom  10C    basis set group =>   2
Atom  11C    basis set group =>   2
Atom  12N    basis set group =>   3
Atom  13C    basis set group =>   2
Atom  14N    basis set group =>   3
Atom  15C    basis set group =>   2
Atom  16C    basis set group =>   2
Atom  17N    basis set group =>   3
Atom  18C    basis set group =>   2
Atom  19N    basis set group =>   3
Atom  20H    basis set group =>   4
Atom  21H    basis set group =>   4
Atom  22H    basis set group =>   4
---------------------------------
AUXILIARY/J BASIS SET INFORMATION
---------------------------------
There are 4 groups of distinct atoms

 Group   1 Type F   : 12s5p4d2f1g contracted to 6s4p3d1f1g pattern {711111/2111/211/2/1}
 Group   2 Type C   : 12s5p4d2f1g contracted to 6s4p3d1f1g pattern {711111/2111/211/2/1}
 Group   3 Type N   : 12s5p4d2f1g contracted to 6s4p3d1f1g pattern {711111/2111/211/2/1}
 Group   4 Type H   : 5s2p1d contracted to 3s1p1d pattern {311/2/1}

Atom   0F    basis set group =>   1
Atom   1C    basis set group =>   2
Atom   2C    basis set group =>   2
Atom   3F    basis set group =>   1
Atom   4C    basis set group =>   2
Atom   5C    basis set group =>   2
Atom   6F    basis set group =>   1
Atom   7C    basis set group =>   2
Atom   8C    basis set group =>   2
Atom   9C    basis set group =>   2
Atom  10C    basis set group =>   2
Atom  11C    basis set group =>   2
Atom  12N    basis set group =>   3
Atom  13C    basis set group =>   2
Atom  14N    basis set group =>   3
Atom  15C    basis set group =>   2
Atom  16C    basis set group =>   2
Atom  17N    basis set group =>   3
Atom  18C    basis set group =>   2
Atom  19N    basis set group =>   3
Atom  20H    basis set group =>   4
Atom  21H    basis set group =>   4
Atom  22H    basis set group =>   4
--------------------------------------------------------------------------
[[6074,1],0]: A high-performance Open MPI point-to-point messaging module
was unable to find any relevant network interfaces:

Module: OpenFabrics (openib)
  Host: compute-0-11

Another transport will be used instead, although this may result in
lower performance.

NOTE: You can disable this warning by setting the MCA parameter
btl_base_warn_component_unused to 0.
--------------------------------------------------------------------------


           ************************************************************
           *        Program running with 8 parallel MPI-processes     *
           *              working on a common directory               *
           ************************************************************
------------------------------------------------------------------------------
                           ORCA GTO INTEGRAL CALCULATION
------------------------------------------------------------------------------

                         BASIS SET STATISTICS AND STARTUP INFO

 # of primitive gaussian shells          ...  418
 # of primitive gaussian functions       ...  944
 # of contracted shells                  ...  232
 # of contracted basis functions         ...  638
 Highest angular momentum                ...    3
 Maximum contraction depth               ...    6
 Integral package used                   ... LIBINT
 Integral threshhold            Thresh   ...  2.500e-11
 Primitive cut-off              TCut     ...  2.500e-12


------------------------------ INTEGRAL EVALUATION ----------------------------


 * One electron integrals 
 Pre-screening matrix                    ... done
 Shell pair data                         ... done (   0.011 sec)

[compute-0-11.local:25555] 7 more processes have sent help message help-mpi-btl-base.txt / btl:no-nics
[compute-0-11.local:25555] Set MCA parameter "orte_base_help_aggregate" to 0 to see all help / error messages
--------------------------------------------------------------------------
[[6040,1],1]: A high-performance Open MPI point-to-point messaging module
was unable to find any relevant network interfaces:

Module: OpenFabrics (openib)
  Host: compute-0-11

Another transport will be used instead, although this may result in
lower performance.

NOTE: You can disable this warning by setting the MCA parameter
btl_base_warn_component_unused to 0.
--------------------------------------------------------------------------


           ************************************************************
           *        Program running with 8 parallel MPI-processes     *
           *              working on a common directory               *
           ************************************************************
-------------------------------------------------------------------------------
                                 ORCA SCF
-------------------------------------------------------------------------------

------------
SCF SETTINGS
------------
Hamiltonian:
 Density Functional     Method          .... DFT(GTOs)
 Exchange Functional    Exchange        .... WB97X-D3
 Correlation Functional Correlation     .... WB97X-D3
 Gradients option       PostSCFGGA      .... off
 Hybrid DFT is turned on
   Fraction HF Exchange ScalHFX         ....  0.195728
   Scaling of DF-GGA-X  ScalDFX         ....  0.000000
   Scaling of DF-GGA-C  ScalDFC         ....  1.000000
   Scaling of DF-LDA-C  ScalLDAC        ....  1.000000
   Perturbative correction              ....  0.000000
   Density functional embedding theory  .... OFF
 Long-range corrected/Screened/Range-Separated Hybrid DFT is turned on
   Amount of maximum screened exact exchange              ....  0.804272
   Range separation parameter mu (erf(mu*r12)/r12)        ....  0.250000


General Settings:
 Integral files         IntName         .... F3-R-TCNQ
 Hartree-Fock type      HFTyp           .... RHF
 Total Charge           Charge          ....    0
 Multiplicity           Mult            ....    1
 Number of Electrons    NEL             ....  136
 Basis Dimension        Dim             ....  638
 Nuclear Repulsion      ENuc            ....   1372.0695673188 Eh

Convergence Acceleration:
 DIIS                   CNVDIIS         .... on
   Start iteration      DIISMaxIt       ....    12
   Startup error        DIISStart       ....  0.200000
   # of expansion vecs  DIISMaxEq       ....     5
   Bias factor          DIISBfac        ....   1.050
   Max. coefficient     DIISMaxC        ....  10.000
 Newton-Raphson         CNVNR           .... off
 SOSCF                  CNVSOSCF        .... on
   Start iteration      SOSCFMaxIt      ....   150
   Startup grad/error   SOSCFStart      ....  0.003300
 Level Shifting         CNVShift        .... on
   Level shift para.    LevelShift      ....    0.2500
   Turn off err/grad.   ShiftErr        ....    0.0010
 Zerner damping         CNVZerner       .... off
 Static damping         CNVDamp         .... on
   Fraction old density DampFac         ....    0.7000
   Max. Damping (<1)    DampMax         ....    0.9800
   Min. Damping (>=0)   DampMin         ....    0.0000
   Turn off err/grad.   DampErr         ....    0.1000
 Fernandez-Rico         CNVRico         .... off

SCF Procedure:
 Maximum # iterations   MaxIter         ....   125
 SCF integral mode      SCFMode         .... Direct
   Integral package                     .... LIBINT
 Reset frequency        DirectResetFreq ....    20
 Integral Threshold     Thresh          ....  2.500e-11 Eh
 Primitive CutOff       TCut            ....  2.500e-12 Eh

Convergence Tolerance:
 Convergence Check Mode ConvCheckMode   .... Total+1el-Energy
 Convergence forced     ConvForced      .... 0
 Energy Change          TolE            ....  1.000e-08 Eh
 1-El. energy change                    ....  1.000e-05 Eh
 Orbital Gradient       TolG            ....  1.000e-05
 Orbital Rotation angle TolX            ....  1.000e-05
 DIIS Error             TolErr          ....  5.000e-07


Diagonalization of the overlap matrix:
Smallest eigenvalue                        ... 7.569e-06
Time for diagonalization                   ...    0.223 sec
Threshold for overlap eigenvalues          ... 1.000e-08
Number of eigenvalues below threshold      ... 0
Time for construction of square roots      ...    0.099 sec
Total time needed                          ...    0.325 sec

-------------------
DFT GRID GENERATION
-------------------

General Integration Accuracy     IntAcc      ...  4.340
Radial Grid Type                 RadialGrid  ... Gauss-Chebyshev
Angular Grid (max. acc.)         AngularGrid ... Lebedev-110
Angular grid pruning method      GridPruning ... 3 (G Style)
Weight generation scheme         WeightScheme... Becke
Basis function cutoff            BFCut       ...    1.0000e-11
Integration weight cutoff        WCut        ...    1.0000e-14
Grids for H and He will be reduced by one unit

# of grid points (after initial pruning)     ...  35938 (   0.0 sec)
# of grid points (after weights+screening)   ...  32912 (   0.1 sec)
nearest neighbour list constructed           ...    0.0 sec
Grid point re-assignment to atoms done       ...    0.0 sec
Grid point division into batches done        ...    0.1 sec
Reduced shell lists constructed in    0.2 sec

Total number of grid points                  ...    32912
Total number of batches                      ...      529
Average number of points per batch           ...       62
Average number of grid points per atom       ...     1431
Average number of shells per batch           ...   128.03 (55.19%)
Average number of basis functions per batch  ...   358.12 (56.13%)
Average number of large shells per batch     ...    93.29 (72.87%)
Average number of large basis fcns per batch ...   257.76 (71.98%)
Maximum spatial batch extension              ...  11.95,  9.98, 22.41 au
Average spatial batch extension              ...   0.33,  0.33,  0.52 au

Time for grid setup =    0.282 sec

------------------------------
INITIAL GUESS: MODEL POTENTIAL
------------------------------
Loading Hartree-Fock densities                     ... done
Calculating cut-offs                               ... done
Setting up the integral package                    ... done
Initializing the effective Hamiltonian             ... done
Starting the Coulomb interaction                   ... done (   0.3 sec)
Reading the grid                                   ... done
Mapping shells                                     ... done
Starting the XC term evaluation                    ... done (   0.5 sec)
  promolecular density results
     # of electrons  =    135.993655927
     EX              =   -123.163109675
     EC              =     -4.566573644
     EX+EC           =   -127.729683319
Transforming the Hamiltonian                       ... done (   0.1 sec)
Diagonalizing the Hamiltonian                      ... done (   0.2 sec)
Back transforming the eigenvectors                 ... done (   0.0 sec)
Now organizing SCF variables                       ... done
                      ------------------
                      INITIAL GUESS DONE (   1.6 sec)
                      ------------------

--------------------
CPCM SOLVATION MODEL
--------------------
CPCM parameters:
  Epsilon                                         ...       3.0000
  Refrac                                          ...       1.3300
  Rsolv                                           ...       1.3000
  Surface type                                    ...    GEPOL SES
  Epsilon function type                           ...         CPCM
Radii:
 Radius for F  used is    3.2503 Bohr (=   1.7200 Ang.)
 Radius for C  used is    3.7795 Bohr (=   2.0000 Ang.)
 Radius for N  used is    3.4582 Bohr (=   1.8300 Ang.)
 Radius for H  used is    2.4566 Bohr (=   1.3000 Ang.)
Calculating surface                               ...        done! (  0.1s)
GEPOL surface points                              ...          793
GEPOL Volume                                      ...    1933.1760
GEPOL Surface-area                                ...     986.9365
Calculating surface distance matrix               ...        done! (  0.0s)
Performing Cholesky decomposition & store         ...        done! (  0.0s)
Overall time for CPCM initialization              ...                 0.1s
--------------
SCF ITERATIONS
--------------
ITER       Energy         Delta-E        Max-DP      RMS-DP      [F,P]     Damp
               ***  Starting incremental Fock matrix formation  ***
[compute-0-11.local:25585] 7 more processes have sent help message help-mpi-btl-base.txt / btl:no-nics
[compute-0-11.local:25585] Set MCA parameter "orte_base_help_aggregate" to 0 to see all help / error messages
  0  -1015.1682525932   0.000000000000 0.05478077  0.00078823  0.2685398 0.7000
  1  -1015.3703481601  -0.202095566832 0.03784615  0.00058972  0.1235512 0.7000
                               ***Turning on DIIS***
  2  -1015.4488112746  -0.078463114560 0.07369598  0.00109276  0.0464828 0.0000
  3  -1015.5890415479  -0.140230273239 0.03889541  0.00049255  0.0647558 0.0000
  4  -1015.6117574484  -0.022715900513 0.01201064  0.00017445  0.0221631 0.0000
  5  -1015.6140237040  -0.002266255645 0.00580021  0.00007953  0.0040906 0.0000
  6  -1015.6143997236  -0.000376019554 0.00411968  0.00004847  0.0023227 0.0000
                      *** Initiating the SOSCF procedure ***
                           *** Shutting down DIIS ***
                      *** Re-Reading the Fockian *** 
                      *** Removing any level shift *** 
ITER      Energy       Delta-E        Grad      Rot      Max-DP    RMS-DP
  7  -1015.61459741  -0.0001976838  0.002419  0.002419  0.002204  0.000032
               *** Restarting incremental Fock matrix formation ***
  8  -1015.61469569  -0.0000982802  0.001373  0.005486  0.001262  0.000020
  9  -1015.61474348  -0.0000477877  0.000719  0.008275  0.001558  0.000028
 10  -1015.61477267  -0.0000291969  0.000396  0.001233  0.000501  0.000009
 11  -1015.61477703  -0.0000043579  0.000226  0.000764  0.000207  0.000004
 12  -1015.61477829  -0.0000012558  0.000099  0.000504  0.000099  0.000002
 13  -1015.61477862  -0.0000003293  0.000052  0.000263  0.000109  0.000002
 14  -1015.61477871  -0.0000000991  0.000028  0.000110  0.000041  0.000001
 15  -1015.61477875  -0.0000000338  0.000007  0.000042  0.000013  0.000000
 16  -1015.61477875   0.0000000012  0.000005  0.000023  0.000008  0.000000
                  ***Gradient check signals convergence***
              ***Rediagonalizing the Fockian in SOSCF/NRSCF***

               *****************************************************
               *                     SUCCESS                       *
               *           SCF CONVERGED AFTER  17 CYCLES          *
               *****************************************************

Setting up the final grid:

General Integration Accuracy     IntAcc      ...  4.670
Radial Grid Type                 RadialGrid  ... Gauss-Chebyshev
Angular Grid (max. acc.)         AngularGrid ... Lebedev-302
Angular grid pruning method      GridPruning ... 3 (G Style)
Weight generation scheme         WeightScheme... Becke
Basis function cutoff            BFCut       ...    1.0000e-11
Integration weight cutoff        WCut        ...    1.0000e-14
Grids for H and He will be reduced by one unit

# of grid points (after initial pruning)     ... 134602 (   0.0 sec)
# of grid points (after weights+screening)   ... 121130 (   0.2 sec)
nearest neighbour list constructed           ...    0.0 sec
Grid point re-assignment to atoms done       ...    0.0 sec
Grid point division into batches done        ...    0.8 sec
Reduced shell lists constructed in    1.3 sec

Total number of grid points                  ...   121130
Total number of batches                      ...     1905
Average number of points per batch           ...       63
Average number of grid points per atom       ...     5267
Average number of shells per batch           ...   118.04 (50.88%)
Average number of basis functions per batch  ...   327.80 (51.38%)
Average number of large shells per batch     ...    84.55 (71.62%)
Average number of large basis fcns per batch ...   231.05 (70.49%)
Maximum spatial batch extension              ...  12.50,  9.47, 15.36 au
Average spatial batch extension              ...   0.23,  0.23,  0.28 au

Final grid set up in    1.6 sec
Final integration                            ... done (   1.9 sec)
Change in XC energy                          ...     0.003791420
Integrated number of electrons               ...   135.999979503
Previous integrated no of electrons          ...   135.999912750

----------------
TOTAL SCF ENERGY
----------------

Total Energy       :        -1015.61098733 Eh          -27636.17996 eV

Components:
Nuclear Repulsion  :         1372.06956732 Eh           37335.91105 eV
Electronic Energy  :        -2387.68055465 Eh          -64972.09101 eV
One Electron Energy:        -4108.20012053 Eh         -111789.80856 eV
Two Electron Energy:         1720.51956588 Eh           46817.71755 eV
CPCM Dielectric    :           -0.01919365 Eh              -0.52229 eV

Virial components:
Potential Energy   :        -2026.12719436 Eh          -55133.72390 eV
Kinetic Energy     :         1010.51620703 Eh           27497.54394 eV
Virial Ratio       :            2.00504176


DFT components:
N(Alpha)           :       67.999989751263 electrons
N(Beta)            :       67.999989751263 electrons
N(Total)           :      135.999979502525 electrons
E(XC)              :      -90.950146508963 Eh       
DFET-embed. en.    :        0.000000000000 Eh       
CPCM Solvation Model Properties:
Surface-charge          :           -0.02729365
Charge-correction       :            0.00026816 Eh               0.00730 eV
Free-energy (cav+disp)  :            0.00508414 Eh               0.13835 eV
Corrected G(solv)       :        -1015.60563503 Eh          -27636.03432 eV

---------------
SCF CONVERGENCE
---------------

  Last Energy change         ...    5.8901e-10  Tolerance :   1.0000e-08
  Last MAX-Density change    ...    1.1049e-05  Tolerance :   1.0000e-07
  Last RMS-Density change    ...    1.4203e-07  Tolerance :   5.0000e-09
  Last Orbital Gradient      ...    1.4001e-06  Tolerance :   1.0000e-05
  Last Orbital Rotation      ...    7.7684e-06  Tolerance :   1.0000e-05

             **** THE GBW FILE WAS UPDATED (F3-R-TCNQ.gbw) ****
             **** DENSITY FILE WAS UPDATED (F3-R-TCNQ.scfp) ****
             **** ENERGY FILE WAS UPDATED (F3-R-TCNQ.en.tmp) ****
             **** THE GBW FILE WAS UPDATED (F3-R-TCNQ.gbw) ****
             **** DENSITY FILE WAS UPDATED (F3-R-TCNQ.scfp) ****
----------------
ORBITAL ENERGIES
----------------

  NO   OCC          E(Eh)            E(eV) 
   0   2.0000     -24.854054      -676.3132 
   1   2.0000     -24.852998      -676.2844 
   2   2.0000     -24.852463      -676.2699 
   3   2.0000     -14.487951      -394.2372 
   4   2.0000     -14.465653      -393.6304 
   5   2.0000     -14.462729      -393.5509 
   6   2.0000     -14.461331      -393.5128 
   7   2.0000     -10.442538      -284.1559 
   8   2.0000     -10.441876      -284.1379 
   9   2.0000     -10.440487      -284.1001 
  10   2.0000     -10.424559      -283.6667 
  11   2.0000     -10.415939      -283.4321 
  12   2.0000     -10.401770      -283.0465 
  13   2.0000     -10.400646      -283.0160 
  14   2.0000     -10.395154      -282.8665 
  15   2.0000     -10.374548      -282.3058 
  16   2.0000     -10.367089      -282.1028 
  17   2.0000     -10.364162      -282.0232 
  18   2.0000     -10.362719      -281.9839 
  19   2.0000     -10.309719      -280.5417 
  20   2.0000      -1.404004       -38.2049 
  21   2.0000      -1.394786       -37.9541 
  22   2.0000      -1.386733       -37.7349 
  23   2.0000      -1.085312       -29.5328 
  24   2.0000      -1.073816       -29.2200 
  25   2.0000      -1.060540       -28.8588 
  26   2.0000      -1.058521       -28.8038 
  27   2.0000      -1.030941       -28.0533 
  28   2.0000      -1.013104       -27.5679 
  29   2.0000      -0.959921       -26.1208 
  30   2.0000      -0.944958       -25.7136 
  31   2.0000      -0.892576       -24.2882 
  32   2.0000      -0.858900       -23.3719 
  33   2.0000      -0.811850       -22.0916 
  34   2.0000      -0.785982       -21.3877 
  35   2.0000      -0.757068       -20.6009 
  36   2.0000      -0.731773       -19.9125 
  37   2.0000      -0.719287       -19.5728 
  38   2.0000      -0.699801       -19.0426 
  39   2.0000      -0.672745       -18.3063 
  40   2.0000      -0.669722       -18.2241 
  41   2.0000      -0.653352       -17.7786 
  42   2.0000      -0.652376       -17.7521 
  43   2.0000      -0.631336       -17.1795 
  44   2.0000      -0.626274       -17.0418 
  45   2.0000      -0.607269       -16.5246 
  46   2.0000      -0.578777       -15.7493 
  47   2.0000      -0.570340       -15.5197 
  48   2.0000      -0.566825       -15.4241 
  49   2.0000      -0.546190       -14.8626 
  50   2.0000      -0.545074       -14.8322 
  51   2.0000      -0.535141       -14.5619 
  52   2.0000      -0.526423       -14.3247 
  53   2.0000      -0.520969       -14.1763 
  54   2.0000      -0.516405       -14.0521 
  55   2.0000      -0.513198       -13.9648 
  56   2.0000      -0.507390       -13.8068 
  57   2.0000      -0.506483       -13.7821 
  58   2.0000      -0.495437       -13.4815 
  59   2.0000      -0.479475       -13.0472 
  60   2.0000      -0.473405       -12.8820 
  61   2.0000      -0.466890       -12.7047 
  62   2.0000      -0.465500       -12.6669 
  63   2.0000      -0.459433       -12.5018 
  64   2.0000      -0.447062       -12.1652 
  65   2.0000      -0.439981       -11.9725 
  66   2.0000      -0.383158       -10.4263 
  67   2.0000      -0.337967        -9.1965 
  68   0.0000      -0.132189        -3.5970 
  69   0.0000       0.005799         0.1578 
  70   0.0000       0.017024         0.4632 
  71   0.0000       0.030261         0.8235 
  72   0.0000       0.041636         1.1330 
  73   0.0000       0.068104         1.8532 
  74   0.0000       0.068898         1.8748 
  75   0.0000       0.083197         2.2639 
  76   0.0000       0.089349         2.4313 
  77   0.0000       0.108413         2.9501 
  78   0.0000       0.110733         3.0132 
  79   0.0000       0.126105         3.4315 
  80   0.0000       0.130048         3.5388 
  81   0.0000       0.138319         3.7639 
  82   0.0000       0.156908         4.2697 
  83   0.0000       0.164809         4.4847 
  84   0.0000       0.173383         4.7180 
  85   0.0000       0.180586         4.9140 
  86   0.0000       0.188691         5.1345 
  87   0.0000       0.190814         5.1923 
  88   0.0000       0.200232         5.4486 
  89   0.0000       0.215799         5.8722 
  90   0.0000       0.227592         6.1931 
  91   0.0000       0.233448         6.3524 
  92   0.0000       0.240797         6.5524 
  93   0.0000       0.249859         6.7990 
  94   0.0000       0.252549         6.8722 
  95   0.0000       0.262551         7.1444 
  96   0.0000       0.267785         7.2868 
  97   0.0000       0.269770         7.3408 
  98   0.0000       0.277566         7.5529 
  99   0.0000       0.279615         7.6087 
 100   0.0000       0.291333         7.9276 
 101   0.0000       0.297912         8.1066 
 102   0.0000       0.301438         8.2025 
 103   0.0000       0.309409         8.4195 
 104   0.0000       0.322069         8.7639 
 105   0.0000       0.324310         8.8249 
 106   0.0000       0.327096         8.9007 
 107   0.0000       0.334959         9.1147 
 108   0.0000       0.340316         9.2605 
 109   0.0000       0.346399         9.4260 
 110   0.0000       0.354584         9.6487 
 111   0.0000       0.355809         9.6821 
 112   0.0000       0.362387         9.8611 
 113   0.0000       0.371255        10.1024 
 114   0.0000       0.379081        10.3153 
 115   0.0000       0.385146        10.4804 
 116   0.0000       0.391065        10.6414 
 117   0.0000       0.400385        10.8950 
 118   0.0000       0.416354        11.3296 
 119   0.0000       0.416466        11.3326 
 120   0.0000       0.428021        11.6471 
 121   0.0000       0.429451        11.6860 
 122   0.0000       0.430662        11.7189 
 123   0.0000       0.440982        11.9997 
 124   0.0000       0.444609        12.0984 
 125   0.0000       0.456365        12.4183 
 126   0.0000       0.465906        12.6780 
 127   0.0000       0.476413        12.9639 
 128   0.0000       0.482673        13.1342 
 129   0.0000       0.485188        13.2026 
 130   0.0000       0.486211        13.2305 
 131   0.0000       0.493217        13.4211 
 132   0.0000       0.508865        13.8469 
 133   0.0000       0.518503        14.1092 
 134   0.0000       0.522652        14.2221 
 135   0.0000       0.529094        14.3974 
 136   0.0000       0.533693        14.5225 
 137   0.0000       0.535842        14.5810 
 138   0.0000       0.543054        14.7773 
 139   0.0000       0.552172        15.0254 
 140   0.0000       0.554922        15.1002 
 141   0.0000       0.555158        15.1066 
 142   0.0000       0.559713        15.2306 
 143   0.0000       0.580128        15.7861 
 144   0.0000       0.591278        16.0895 
 145   0.0000       0.592126        16.1126 
 146   0.0000       0.600033        16.3277 
 147   0.0000       0.604454        16.4480 
 148   0.0000       0.618509        16.8305 
 149   0.0000       0.618634        16.8339 
 150   0.0000       0.623912        16.9775 
 151   0.0000       0.627124        17.0649 
 152   0.0000       0.629012        17.1163 
 153   0.0000       0.632384        17.2080 
 154   0.0000       0.642852        17.4929 
 155   0.0000       0.647943        17.6314 
 156   0.0000       0.651916        17.7395 
 157   0.0000       0.654501        17.8099 
 158   0.0000       0.665554        18.1107 
 159   0.0000       0.674361        18.3503 
 160   0.0000       0.684169        18.6172 
 161   0.0000       0.699879        19.0447 
 162   0.0000       0.707809        19.2605 
 163   0.0000       0.708019        19.2662 
 164   0.0000       0.720891        19.6164 
 165   0.0000       0.725149        19.7323 
 166   0.0000       0.737458        20.0672 
 167   0.0000       0.742664        20.2089 
 168   0.0000       0.744382        20.2557 
 169   0.0000       0.764069        20.7914 
 170   0.0000       0.765186        20.8218 
 171   0.0000       0.772249        21.0140 
 172   0.0000       0.774613        21.0783 
 173   0.0000       0.784438        21.3456 
 174   0.0000       0.792755        21.5720 
 175   0.0000       0.805202        21.9107 
 176   0.0000       0.810597        22.0575 
 177   0.0000       0.825341        22.4587 
 178   0.0000       0.828673        22.5493 
 179   0.0000       0.834344        22.7037 
 180   0.0000       0.844962        22.9926 
 181   0.0000       0.848250        23.0821 
 182   0.0000       0.857770        23.3411 
 183   0.0000       0.864765        23.5314 
 184   0.0000       0.867273        23.5997 
 185   0.0000       0.872726        23.7481 
 186   0.0000       0.872837        23.7511 
 187   0.0000       0.885876        24.1059 
 188   0.0000       0.896277        24.3889 
 189   0.0000       0.896666        24.3995 
 190   0.0000       0.903238        24.5784 
 191   0.0000       0.908689        24.7267 
 192   0.0000       0.924029        25.1441 
 193   0.0000       0.956161        26.0185 
 194   0.0000       0.959790        26.1172 
 195   0.0000       0.961624        26.1671 
 196   0.0000       0.968471        26.3534 
 197   0.0000       0.973912        26.5015 
 198   0.0000       0.991365        26.9764 
 199   0.0000       1.004652        27.3380 
 200   0.0000       1.015648        27.6372 
 201   0.0000       1.028440        27.9853 
 202   0.0000       1.028831        27.9959 
 203   0.0000       1.048583        28.5334 
 204   0.0000       1.057374        28.7726 
 205   0.0000       1.066510        29.0212 
 206   0.0000       1.078569        29.3493 
 207   0.0000       1.081870        29.4392 
 208   0.0000       1.084408        29.5082 
 209   0.0000       1.103543        30.0289 
 210   0.0000       1.116434        30.3797 
 211   0.0000       1.118336        30.4315 
 212   0.0000       1.128633        30.7117 
 213   0.0000       1.142469        31.0882 
 214   0.0000       1.151950        31.3461 
 215   0.0000       1.176736        32.0206 
 216   0.0000       1.178976        32.0816 
 217   0.0000       1.191019        32.4093 
 218   0.0000       1.193625        32.4802 
 219   0.0000       1.199280        32.6341 
 220   0.0000       1.204295        32.7705 
 221   0.0000       1.221237        33.2316 
 222   0.0000       1.242444        33.8086 
 223   0.0000       1.247715        33.9520 
 224   0.0000       1.264297        34.4033 
 225   0.0000       1.269804        34.5531 
 226   0.0000       1.279221        34.8094 
 227   0.0000       1.287743        35.0413 
 228   0.0000       1.288660        35.0662 
 229   0.0000       1.303607        35.4730 
 230   0.0000       1.312435        35.7132 
 231   0.0000       1.327063        36.1112 
 232   0.0000       1.328581        36.1525 
 233   0.0000       1.332998        36.2727 
 234   0.0000       1.336935        36.3799 
 235   0.0000       1.350071        36.7373 
 236   0.0000       1.355345        36.8808 
 237   0.0000       1.369698        37.2714 
 238   0.0000       1.375607        37.4322 
 239   0.0000       1.391949        37.8769 
 240   0.0000       1.392864        37.9018 
 241   0.0000       1.408904        38.3382 
 242   0.0000       1.412522        38.4367 
 243   0.0000       1.421266        38.6746 
 244   0.0000       1.443671        39.2843 
 245   0.0000       1.451148        39.4878 
 246   0.0000       1.461588        39.7718 
 247   0.0000       1.465211        39.8704 
 248   0.0000       1.481621        40.3170 
 249   0.0000       1.493570        40.6421 
 250   0.0000       1.495648        40.6987 
 251   0.0000       1.514104        41.2009 
 252   0.0000       1.518532        41.3214 
 253   0.0000       1.523154        41.4471 
 254   0.0000       1.532366        41.6978 
 255   0.0000       1.539903        41.9029 
 256   0.0000       1.571578        42.7648 
 257   0.0000       1.585342        43.1393 
 258   0.0000       1.586238        43.1637 
 259   0.0000       1.589183        43.2439 
 260   0.0000       1.612609        43.8813 
 261   0.0000       1.614849        43.9423 
 262   0.0000       1.617695        44.0197 
 263   0.0000       1.620435        44.0943 
 264   0.0000       1.629276        44.3348 
 265   0.0000       1.637598        44.5613 
 266   0.0000       1.638916        44.5972 
 267   0.0000       1.655241        45.0414 
 268   0.0000       1.667497        45.3749 
 269   0.0000       1.678907        45.6854 
 270   0.0000       1.687277        45.9131 
 271   0.0000       1.697740        46.1978 
 272   0.0000       1.716842        46.7176 
 273   0.0000       1.730773        47.0967 
 274   0.0000       1.731297        47.1110 
 275   0.0000       1.747682        47.5568 
 276   0.0000       1.758368        47.8476 
 277   0.0000       1.779509        48.4229 
 278   0.0000       1.794377        48.8275 
 279   0.0000       1.799546        48.9681 
 280   0.0000       1.834188        49.9108 
 281   0.0000       1.839676        50.0601 
 282   0.0000       1.863468        50.7075 
 283   0.0000       1.870785        50.9066 
 284   0.0000       1.886675        51.3390 
 285   0.0000       1.907549        51.9070 
 286   0.0000       1.925983        52.4087 
 287   0.0000       1.945880        52.9501 
 288   0.0000       1.955057        53.1998 
 289   0.0000       1.957845        53.2757 
 290   0.0000       1.975166        53.7470 
 291   0.0000       1.976298        53.7778 
 292   0.0000       2.009120        54.6709 
 293   0.0000       2.010101        54.6976 
 294   0.0000       2.014913        54.8286 
 295   0.0000       2.047564        55.7171 
 296   0.0000       2.049628        55.7732 
 297   0.0000       2.059980        56.0549 
 298   0.0000       2.070100        56.3303 
 299   0.0000       2.075609        56.4802 
 300   0.0000       2.091759        56.9197 
 301   0.0000       2.099040        57.1178 
 302   0.0000       2.111043        57.4444 
 303   0.0000       2.121333        57.7244 
 304   0.0000       2.134082        58.0713 
 305   0.0000       2.142402        58.2977 
 306   0.0000       2.157017        58.6954 
 307   0.0000       2.171425        59.0875 
 308   0.0000       2.191840        59.6430 
 309   0.0000       2.201507        59.9060 
 310   0.0000       2.209205        60.1155 
 311   0.0000       2.231885        60.7327 
 312   0.0000       2.246706        61.1360 
 313   0.0000       2.255371        61.3718 
 314   0.0000       2.255402        61.3726 
 315   0.0000       2.272119        61.8275 
 316   0.0000       2.293996        62.4228 
 317   0.0000       2.305972        62.7487 
 318   0.0000       2.318153        63.0801 
 319   0.0000       2.335830        63.5612 
 320   0.0000       2.343847        63.7793 
 321   0.0000       2.363129        64.3040 
 322   0.0000       2.368966        64.4629 
 323   0.0000       2.372345        64.5548 
 324   0.0000       2.379763        64.7566 
 325   0.0000       2.394782        65.1653 
 326   0.0000       2.414691        65.7071 
 327   0.0000       2.418454        65.8095 
 328   0.0000       2.430186        66.1287 
 329   0.0000       2.450108        66.6708 
 330   0.0000       2.457065        66.8601 
 331   0.0000       2.469751        67.2053 
 332   0.0000       2.480502        67.4979 
 333   0.0000       2.485060        67.6219 
 334   0.0000       2.497590        67.9629 
 335   0.0000       2.503768        68.1310 
 336   0.0000       2.523916        68.6793 
 337   0.0000       2.525438        68.7207 
 338   0.0000       2.533754        68.9470 
 339   0.0000       2.558679        69.6252 
 340   0.0000       2.569793        69.9276 
 341   0.0000       2.583286        70.2948 
 342   0.0000       2.595925        70.6387 
 343   0.0000       2.612007        71.0763 
 344   0.0000       2.624046        71.4039 
 345   0.0000       2.626319        71.4658 
 346   0.0000       2.633798        71.6693 
 347   0.0000       2.646667        72.0195 
 348   0.0000       2.646761        72.0220 
 349   0.0000       2.688521        73.1584 
 350   0.0000       2.700907        73.4954 
 351   0.0000       2.707765        73.6820 
 352   0.0000       2.718503        73.9742 
 353   0.0000       2.725737        74.1711 
 354   0.0000       2.728393        74.2433 
 355   0.0000       2.734629        74.4130 
 356   0.0000       2.737776        74.4987 
 357   0.0000       2.743313        74.6493 
 358   0.0000       2.749358        74.8138 
 359   0.0000       2.760033        75.1043 
 360   0.0000       2.771872        75.4265 
 361   0.0000       2.782925        75.7272 
 362   0.0000       2.800662        76.2099 
 363   0.0000       2.806924        76.3803 
 364   0.0000       2.810340        76.4732 
 365   0.0000       2.839100        77.2559 
 366   0.0000       2.850350        77.5620 
 367   0.0000       2.853674        77.6524 
 368   0.0000       2.858655        77.7880 
 369   0.0000       2.878276        78.3219 
 370   0.0000       2.891344        78.6775 
 371   0.0000       2.896563        78.8195 
 372   0.0000       2.904292        79.0298 
 373   0.0000       2.910517        79.1992 
 374   0.0000       2.922008        79.5119 
 375   0.0000       2.927104        79.6506 
 376   0.0000       2.932166        79.7883 
 377   0.0000       2.945456        80.1499 
 378   0.0000       2.951223        80.3069 
 379   0.0000       2.951695        80.3197 
 380   0.0000       2.959026        80.5192 
 381   0.0000       2.963138        80.6311 
 382   0.0000       2.970260        80.8249 
 383   0.0000       2.986253        81.2601 
 384   0.0000       2.996630        81.5425 
 385   0.0000       3.000567        81.6496 
 386   0.0000       3.010484        81.9194 
 387   0.0000       3.016210        82.0753 
 388   0.0000       3.022172        82.2375 
 389   0.0000       3.046090        82.8883 
 390   0.0000       3.047595        82.9293 
 391   0.0000       3.056496        83.1715 
 392   0.0000       3.065291        83.4108 
 393   0.0000       3.069939        83.5373 
 394   0.0000       3.077724        83.7491 
 395   0.0000       3.097727        84.2934 
 396   0.0000       3.100296        84.3633 
 397   0.0000       3.106779        84.5398 
 398   0.0000       3.125632        85.0528 
 399   0.0000       3.130893        85.1959 
 400   0.0000       3.131790        85.2203 
 401   0.0000       3.148175        85.6662 
 402   0.0000       3.149300        85.6968 
 403   0.0000       3.169025        86.2336 
 404   0.0000       3.173222        86.3478 
 405   0.0000       3.174351        86.3785 
 406   0.0000       3.188663        86.7679 
 407   0.0000       3.198290        87.0299 
 408   0.0000       3.198324        87.0308 
 409   0.0000       3.203042        87.1592 
 410   0.0000       3.217525        87.5533 
 411   0.0000       3.230304        87.9010 
 412   0.0000       3.231727        87.9398 
 413   0.0000       3.250170        88.4416 
 414   0.0000       3.252321        88.5002 
 415   0.0000       3.263771        88.8117 
 416   0.0000       3.264570        88.8335 
 417   0.0000       3.273670        89.0811 
 418   0.0000       3.279002        89.2262 
 419   0.0000       3.289048        89.4996 
 420   0.0000       3.301592        89.8409 
 421   0.0000       3.307915        90.0129 
 422   0.0000       3.316695        90.2519 
 423   0.0000       3.316972        90.2594 
 424   0.0000       3.318196        90.2927 
 425   0.0000       3.333393        90.7062 
 426   0.0000       3.333729        90.7154 
 427   0.0000       3.355273        91.3016 
 428   0.0000       3.360728        91.4500 
 429   0.0000       3.377041        91.8940 
 430   0.0000       3.388000        92.1922 
 431   0.0000       3.388598        92.2084 
 432   0.0000       3.400966        92.5450 
 433   0.0000       3.402281        92.5808 
 434   0.0000       3.416169        92.9587 
 435   0.0000       3.438264        93.5599 
 436   0.0000       3.443360        93.6986 
 437   0.0000       3.445171        93.7479 
 438   0.0000       3.452697        93.9527 
 439   0.0000       3.474624        94.5493 
 440   0.0000       3.485249        94.8385 
 441   0.0000       3.503580        95.3373 
 442   0.0000       3.513858        95.6169 
 443   0.0000       3.519758        95.7775 
 444   0.0000       3.527055        95.9760 
 445   0.0000       3.541461        96.3681 
 446   0.0000       3.542110        96.3857 
 447   0.0000       3.551561        96.6429 
 448   0.0000       3.570861        97.1681 
 449   0.0000       3.579551        97.4045 
 450   0.0000       3.584663        97.5436 
 451   0.0000       3.595782        97.8462 
 452   0.0000       3.615534        98.3837 
 453   0.0000       3.616353        98.4060 
 454   0.0000       3.644050        99.1597 
 455   0.0000       3.674909        99.9993 
 456   0.0000       3.704089       100.7934 
 457   0.0000       3.712812       101.0308 
 458   0.0000       3.737683       101.7075 
 459   0.0000       3.747084       101.9633 
 460   0.0000       3.756354       102.2156 
 461   0.0000       3.766625       102.4951 
 462   0.0000       3.780742       102.8792 
 463   0.0000       3.785819       103.0174 
 464   0.0000       3.798628       103.3659 
 465   0.0000       3.823356       104.0388 
 466   0.0000       3.850743       104.7840 
 467   0.0000       3.863749       105.1380 
 468   0.0000       3.865957       105.1980 
 469   0.0000       3.878635       105.5430 
 470   0.0000       3.923889       106.7745 
 471   0.0000       3.935750       107.0972 
 472   0.0000       3.944774       107.3427 
 473   0.0000       3.949839       107.4806 
 474   0.0000       3.965332       107.9022 
 475   0.0000       4.002428       108.9116 
 476   0.0000       4.009467       109.1031 
 477   0.0000       4.012231       109.1784 
 478   0.0000       4.012972       109.1985 
 479   0.0000       4.015814       109.2759 
 480   0.0000       4.023039       109.4725 
 481   0.0000       4.035992       109.8249 
 482   0.0000       4.037288       109.8602 
 483   0.0000       4.039060       109.9084 
 484   0.0000       4.046536       110.1118 
 485   0.0000       4.049830       110.2015 
 486   0.0000       4.066325       110.6503 
 487   0.0000       4.074944       110.8849 
 488   0.0000       4.087406       111.2240 
 489   0.0000       4.098139       111.5160 
 490   0.0000       4.109928       111.8368 
 491   0.0000       4.129741       112.3760 
 492   0.0000       4.141831       112.7049 
 493   0.0000       4.171499       113.5123 
 494   0.0000       4.180178       113.7484 
 495   0.0000       4.228589       115.0658 
 496   0.0000       4.233721       115.2054 
 497   0.0000       4.245630       115.5295 
 498   0.0000       4.248398       115.6048 
 499   0.0000       4.254564       115.7726 
 500   0.0000       4.272391       116.2577 
 501   0.0000       4.286147       116.6320 
 502   0.0000       4.319079       117.5281 
 503   0.0000       4.328498       117.7844 
 504   0.0000       4.350933       118.3949 
 505   0.0000       4.370748       118.9341 
 506   0.0000       4.373310       119.0038 
 507   0.0000       4.384668       119.3129 
 508   0.0000       4.389516       119.4448 
 509   0.0000       4.432705       120.6200 
 510   0.0000       4.441234       120.8521 
 511   0.0000       4.481843       121.9571 
 512   0.0000       4.488463       122.1373 
 513   0.0000       4.490432       122.1909 
 514   0.0000       4.498758       122.4174 
 515   0.0000       4.532652       123.3397 
 516   0.0000       4.553298       123.9015 
 517   0.0000       4.575289       124.5000 
 518   0.0000       4.582508       124.6964 
 519   0.0000       4.608744       125.4103 
 520   0.0000       4.617488       125.6482 
 521   0.0000       4.617537       125.6496 
 522   0.0000       4.620147       125.7206 
 523   0.0000       4.633139       126.0741 
 524   0.0000       4.641597       126.3043 
 525   0.0000       4.656861       126.7196 
 526   0.0000       4.663822       126.9091 
 527   0.0000       4.677105       127.2705 
 528   0.0000       4.682767       127.4246 
 529   0.0000       4.699240       127.8728 
 530   0.0000       4.726015       128.6014 
 531   0.0000       4.745400       129.1289 
 532   0.0000       4.774087       129.9095 
 533   0.0000       4.783515       130.1661 
 534   0.0000       4.813586       130.9843 
 535   0.0000       4.814779       131.0168 
 536   0.0000       4.835273       131.5745 
 537   0.0000       4.850764       131.9960 
 538   0.0000       4.882709       132.8653 
 539   0.0000       4.886634       132.9721 
 540   0.0000       4.925804       134.0380 
 541   0.0000       4.965485       135.1177 
 542   0.0000       5.037408       137.0748 
 543   0.0000       5.049868       137.4139 
 544   0.0000       5.083276       138.3230 
 545   0.0000       5.098374       138.7338 
 546   0.0000       5.143231       139.9544 
 547   0.0000       5.170523       140.6971 
 548   0.0000       5.206424       141.6740 
 549   0.0000       5.218500       142.0026 
 550   0.0000       5.228937       142.2866 
 551   0.0000       5.234998       142.4515 
 552   0.0000       5.247320       142.7868 
 553   0.0000       5.277844       143.6174 
 554   0.0000       5.323376       144.8564 
 555   0.0000       5.337487       145.2404 
 556   0.0000       5.358004       145.7987 
 557   0.0000       5.386408       146.5716 
 558   0.0000       5.395296       146.8135 
 559   0.0000       5.410772       147.2346 
 560   0.0000       5.477840       149.0596 
 561   0.0000       5.521687       150.2527 
 562   0.0000       5.552154       151.0818 
 563   0.0000       5.570322       151.5762 
 564   0.0000       5.615488       152.8052 
 565   0.0000       5.631982       153.2540 
 566   0.0000       5.691913       154.8848 
 567   0.0000       5.704021       155.2143 
 568   0.0000       5.747797       156.4055 
 569   0.0000       5.754132       156.5779 
 570   0.0000       5.759807       156.7323 
 571   0.0000       5.765501       156.8872 
 572   0.0000       5.788296       157.5075 
 573   0.0000       5.810215       158.1040 
 574   0.0000       5.851859       159.2372 
 575   0.0000       5.924740       161.2204 
 576   0.0000       5.981990       162.7782 
 577   0.0000       6.081059       165.4740 
 578   0.0000       6.195342       168.5838 
 579   0.0000       6.223855       169.3597 
 580   0.0000       6.254074       170.1820 
 581   0.0000       6.294581       171.2842 
 582   0.0000       6.913817       188.1345 
 583   0.0000       6.915632       188.1839 
 584   0.0000       6.922959       188.3833 
 585   0.0000       6.930665       188.5930 
 586   0.0000       6.941566       188.8896 
 587   0.0000       6.948969       189.0911 
 588   0.0000       6.982758       190.0105 
 589   0.0000       7.015832       190.9105 
 590   0.0000       7.058426       192.0695 
 591   0.0000       7.067960       192.3290 
 592   0.0000       7.122447       193.8116 
 593   0.0000       7.204208       196.0365 
 594   0.0000       7.207501       196.1261 
 595   0.0000       7.253473       197.3770 
 596   0.0000       7.329865       199.4558 
 597   0.0000       7.365312       200.4203 
 598   0.0000       7.407321       201.5635 
 599   0.0000       7.480367       203.5511 
 600   0.0000       7.507936       204.3013 
 601   0.0000       7.612291       207.1410 
 602   0.0000       7.825990       212.9560 
 603   0.0000       8.365553       227.6383 
 604   0.0000       8.384990       228.1672 
 605   0.0000       8.418822       229.0878 
 606   0.0000       8.597434       233.9481 
 607   0.0000       8.598174       233.9682 
 608   0.0000       8.675591       236.0748 
 609   0.0000       8.747025       238.0186 
 610   0.0000       8.790680       239.2066 
 611   0.0000       8.840055       240.5501 
 612   0.0000       8.930645       243.0152 
 613   0.0000       9.040442       246.0029 
 614   0.0000       9.059094       246.5105 
 615   0.0000       9.098634       247.5864 
 616   0.0000       9.137848       248.6535 
 617   0.0000       9.265395       252.1242 
 618   0.0000      22.459137       611.1442 
 619   0.0000      22.487509       611.9162 
 620   0.0000      22.893072       622.9522 
 621   0.0000      22.924642       623.8112 
 622   0.0000      22.976760       625.2294 
 623   0.0000      22.996570       625.7685 
 624   0.0000      23.060261       627.5016 
 625   0.0000      23.166943       630.4046 
 626   0.0000      23.276953       633.3981 
 627   0.0000      23.431168       637.5945 
 628   0.0000      23.484265       639.0393 
 629   0.0000      23.845610       648.8720 
 630   0.0000      24.110159       656.0708 
 631   0.0000      32.083115       873.0259 
 632   0.0000      32.189423       875.9187 
 633   0.0000      32.198502       876.1658 
 634   0.0000      32.252344       877.6309 
 635   0.0000      57.262683      1558.1968 
 636   0.0000      57.442199      1563.0817 
 637   0.0000      57.560433      1566.2990 

                    ********************************
                    * MULLIKEN POPULATION ANALYSIS *
                    ********************************

-----------------------
MULLIKEN ATOMIC CHARGES
-----------------------
   0 F :   -0.163022
   1 C :    0.249413
   2 C :    0.259056
   3 F :   -0.161224
   4 C :   -0.128549
   5 C :    0.270413
   6 F :   -0.177620
   7 C :   -0.070174
   8 C :   -0.456749
   9 C :    0.013672
  10 C :    0.400644
  11 C :   -0.184946
  12 N :   -0.038746
  13 C :   -0.218950
  14 N :   -0.050050
  15 C :    0.421369
  16 C :   -0.091051
  17 N :   -0.181221
  18 C :   -0.199394
  19 N :   -0.050761
  20 H :    0.185100
  21 H :    0.186403
  22 H :    0.186385
Sum of atomic charges:   -0.0000000

--------------------------------
MULLIKEN REDUCED ORBITAL CHARGES
--------------------------------
  0 F s       :     3.934635  s :     3.934635
      pz      :     1.878134  p :     5.211807
      px      :     1.418321
      py      :     1.915352
      dz2     :     0.002121  d :     0.015920
      dxz     :     0.003893
      dyz     :     0.000065
      dx2y2   :     0.006577
      dxy     :     0.003264
      f0      :     0.000060  f :     0.000659
      f+1     :     0.000130
      f-1     :     0.000010
      f+2     :     0.000098
      f-2     :     0.000002
      f+3     :     0.000223
      f-3     :     0.000137
  1 C s       :     3.124227  s :     3.124227
      pz      :     0.973078  p :     2.412607
      px      :     0.610018
      py      :     0.829510
      dz2     :     0.007550  d :     0.196077
      dxz     :     0.048580
      dyz     :     0.026357
      dx2y2   :     0.025609
      dxy     :     0.087979
      f0      :     0.002886  f :     0.017676
      f+1     :     0.001502
      f-1     :     0.000933
      f+2     :     0.003122
      f-2     :     0.000827
      f+3     :     0.002301
      f-3     :     0.006106
  2 C s       :     3.116978  s :     3.116978
      pz      :     0.981776  p :     2.408798
      px      :     0.769696
      py      :     0.657326
      dz2     :     0.007353  d :     0.197544
      dxz     :     0.027926
      dyz     :     0.046944
      dx2y2   :     0.081911
      dxy     :     0.033410
      f0      :     0.002918  f :     0.017625
      f+1     :     0.001186
      f-1     :     0.001267
      f+2     :     0.000905
      f-2     :     0.003009
      f+3     :     0.002589
      f-3     :     0.005751
  3 F s       :     3.935055  s :     3.935055
      pz      :     1.879380  p :     5.209508
      px      :     1.727089
      py      :     1.603039
      dz2     :     0.002140  d :     0.015996
      dxz     :     0.001486
      dyz     :     0.002485
      dx2y2   :     0.003425
      dxy     :     0.006460
      f0      :     0.000060  f :     0.000665
      f+1     :     0.000055
      f-1     :     0.000087
      f+2     :     0.000009
      f-2     :     0.000091
      f+3     :     0.000213
      f-3     :     0.000150
  4 C s       :     3.266447  s :     3.266447
      pz      :     0.917920  p :     2.716161
      px      :     0.920990
      py      :     0.877252
      dz2     :     0.008802  d :     0.135594
      dxz     :     0.027063
      dyz     :     0.038992
      dx2y2   :     0.036723
      dxy     :     0.024014
      f0      :     0.002210  f :     0.010346
      f+1     :     0.000904
      f-1     :     0.000883
      f+2     :     0.001130
      f-2     :     0.000983
      f+3     :     0.001343
      f-3     :     0.002893
  5 C s       :     3.097775  s :     3.097775
      pz      :     0.961750  p :     2.408531
      px      :     0.598739
      py      :     0.848041
      dz2     :     0.006506  d :     0.205829
      dxz     :     0.045776
      dyz     :     0.025308
      dx2y2   :     0.039429
      dxy     :     0.088810
      f0      :     0.002754  f :     0.017453
      f+1     :     0.001471
      f-1     :     0.000900
      f+2     :     0.003035
      f-2     :     0.000735
      f+3     :     0.002426
      f-3     :     0.006132
  6 F s       :     3.940169  s :     3.940169
      pz      :     1.879534  p :     5.220913
      px      :     1.424576
      py      :     1.916804
      dz2     :     0.002124  d :     0.015884
      dxz     :     0.003847
      dyz     :     0.000070
      dx2y2   :     0.006566
      dxy     :     0.003277
      f0      :     0.000059  f :     0.000653
      f+1     :     0.000129
      f-1     :     0.000010
      f+2     :     0.000094
      f-2     :     0.000003
      f+3     :     0.000220
      f-3     :     0.000137
  7 C s       :     3.253099  s :     3.253099
      pz      :     0.943154  p :     2.676601
      px      :     0.836829
      py      :     0.896618
      dz2     :     0.005378  d :     0.131103
      dxz     :     0.016854
      dyz     :     0.033821
      dx2y2   :     0.045814
      dxy     :     0.029236
      f0      :     0.001753  f :     0.009371
      f+1     :     0.000881
      f-1     :     0.000837
      f+2     :     0.000780
      f-2     :     0.001009
      f+3     :     0.001437
      f-3     :     0.002674
  8 C s       :     3.364347  s :     3.364347
      pz      :     1.074278  p :     3.039270
      px      :     1.022023
      py      :     0.942968
      dz2     :     0.006254  d :     0.050039
      dxz     :     0.004338
      dyz     :     0.017277
      dx2y2   :     0.013347
      dxy     :     0.008823
      f0      :     0.000296  f :     0.003094
      f+1     :     0.000117
      f-1     :     0.000977
      f+2     :    -0.000085
      f-2     :     0.000393
      f+3     :     0.000567
      f-3     :     0.000829
  9 C s       :     3.245938  s :     3.245938
      pz      :     0.892689  p :     2.579545
      px      :     0.840330
      py      :     0.846526
      dz2     :     0.007157  d :     0.150802
      dxz     :     0.025461
      dyz     :     0.035640
      dx2y2   :     0.036962
      dxy     :     0.045581
      f0      :     0.002026  f :     0.010043
      f+1     :     0.000867
      f-1     :     0.000856
      f+2     :     0.000951
      f-2     :     0.000998
      f+3     :     0.001361
      f-3     :     0.002985
 10 C s       :     2.924592  s :     2.924592
      pz      :     1.042636  p :     2.560477
      px      :     0.741894
      py      :     0.775947
      dz2     :     0.005892  d :     0.106829
      dxz     :     0.014413
      dyz     :     0.020269
      dx2y2   :     0.034792
      dxy     :     0.031463
      f0      :     0.001633  f :     0.007458
      f+1     :     0.000858
      f-1     :     0.000863
      f+2     :     0.000442
      f-2     :     0.000481
      f+3     :     0.001431
      f-3     :     0.001749
 11 C s       :     3.227495  s :     3.227495
      pz      :     0.921138  p :     2.847830
      px      :     0.937430
      py      :     0.989262
      dz2     :     0.004210  d :     0.092185
      dxz     :     0.006851
      dyz     :     0.036635
      dx2y2   :     0.023292
      dxy     :     0.021197
      f0      :     0.002791  f :     0.017436
      f+1     :     0.000608
      f-1     :     0.001072
      f+2     :     0.002082
      f-2     :     0.002249
      f+3     :     0.002707
      f-3     :     0.005926
 12 N s       :     3.690770  s :     3.690770
      pz      :     1.045252  p :     3.307066
      px      :     1.065817
      py      :     1.195997
      dz2     :     0.001707  d :     0.039092
      dxz     :     0.002209
      dyz     :     0.013669
      dx2y2   :     0.010846
      dxy     :     0.010662
      f0      :     0.000319  f :     0.001818
      f+1     :     0.000051
      f-1     :     0.000025
      f+2     :     0.000269
      f-2     :     0.000263
      f+3     :     0.000174
      f-3     :     0.000717
 13 C s       :     3.260754  s :     3.260754
      pz      :     0.920768  p :     2.849543
      px      :     0.995294
      py      :     0.933482
      dz2     :     0.003726  d :     0.091237
[...]
  14 N :    0.080086
  15 C :   -0.084671
  16 C :   -0.131338
  17 N :    0.084220
  18 C :   -0.133507
  19 N :    0.082166
  20 H :    0.144701
  21 H :    0.150218
  22 H :    0.150311

-------------------------------
LOEWDIN REDUCED ORBITAL CHARGES
-------------------------------
  0 F s       :     3.567445  s :     3.567445
      pz      :     1.797458  p :     5.122630
      px      :     1.517266
      py      :     1.807906
      dz2     :     0.004109  d :     0.033877
      dxz     :     0.009339
      dyz     :     0.000089
      dx2y2   :     0.012365
      dxy     :     0.007976
      f0      :     0.000179  f :     0.001666
      f+1     :     0.000261
      f-1     :     0.000030
      f+2     :     0.000299
      f-2     :     0.000011
      f+3     :     0.000437
      f-3     :     0.000449
  1 C s       :     2.705276  s :     2.705276
      pz      :     0.890569  p :     2.687709
      px      :     0.759749
      py      :     1.037392
      dz2     :     0.051601  d :     0.680043
      dxz     :     0.127164
      dyz     :     0.077568
      dx2y2   :     0.206872
      dxy     :     0.216839
      f0      :     0.009019  f :     0.116358
      f+1     :     0.012423
      f-1     :     0.005380
      f+2     :     0.020702
      f-2     :     0.006071
      f+3     :     0.023059
      f-3     :     0.039703
  2 C s       :     2.701684  s :     2.701684
      pz      :     0.895129  p :     2.694360
      px      :     0.921727
      py      :     0.877503
      dz2     :     0.051406  d :     0.684249
      dxz     :     0.076004
      dyz     :     0.130507
      dx2y2   :     0.218400
      dxy     :     0.207932
      f0      :     0.009126  f :     0.116763
      f+1     :     0.007509
      f-1     :     0.010374
      f+2     :     0.006819
      f-2     :     0.019984
      f+3     :     0.023903
      f-3     :     0.039048
  3 F s       :     3.568071  s :     3.568071
      pz      :     1.797928  p :     5.124208
      px      :     1.715671
      py      :     1.610610
      dz2     :     0.004071  d :     0.033774
      dxz     :     0.003068
      dyz     :     0.006390
      dx2y2   :     0.008246
      dxy     :     0.011998
      f0      :     0.000180  f :     0.001665
      f+1     :     0.000110
      f-1     :     0.000182
      f+2     :     0.000048
      f-2     :     0.000264
      f+3     :     0.000437
      f-3     :     0.000445
  4 C s       :     2.689949  s :     2.689949
      pz      :     0.794049  p :     2.765203
      px      :     0.976357
      py      :     0.994797
      dz2     :     0.034456  d :     0.498516
      dxz     :     0.076564
      dyz     :     0.094289
      dx2y2   :     0.154295
      dxy     :     0.138912
      f0      :     0.004638  f :     0.055526
      f+1     :     0.004295
      f-1     :     0.004611
      f+2     :     0.007788
      f-2     :     0.006760
      f+3     :     0.010246
      f-3     :     0.017188
  5 C s       :     2.703767  s :     2.703767
      pz      :     0.882505  p :     2.671325
      px      :     0.751709
      py      :     1.037110
      dz2     :     0.050584  d :     0.687898
      dxz     :     0.120098
      dyz     :     0.077467
      dx2y2   :     0.223633
      dxy     :     0.216117
      f0      :     0.008538  f :     0.115415
      f+1     :     0.012052
      f-1     :     0.005240
      f+2     :     0.019731
      f-2     :     0.005436
      f+3     :     0.024277
      f-3     :     0.040142
  6 F s       :     3.569888  s :     3.569888
      pz      :     1.801997  p :     5.138368
      px      :     1.527100
      py      :     1.809270
      dz2     :     0.003990  d :     0.033024
      dxz     :     0.008807
      dyz     :     0.000190
      dx2y2   :     0.012025
      dxy     :     0.008013
      f0      :     0.000168  f :     0.001598
      f+1     :     0.000248
      f-1     :     0.000032
      f+2     :     0.000266
      f-2     :     0.000023
      f+3     :     0.000424
      f-3     :     0.000437
  7 C s       :     2.702807  s :     2.702807
      pz      :     0.840788  p :     2.831567
      px      :     0.961464
      py      :     1.029314
      dz2     :     0.032579  d :     0.491941
      dxz     :     0.057344
      dyz     :     0.092511
      dx2y2   :     0.168451
      dxy     :     0.141056
      f0      :     0.004663  f :     0.054911
      f+1     :     0.004280
      f-1     :     0.004372
      f+2     :     0.005770
      f-2     :     0.007228
      f+3     :     0.010668
      f-3     :     0.017929
  8 C s       :     2.807200  s :     2.807200
      pz      :     1.075753  p :     3.147490
      px      :     1.049904
      py      :     1.021832
      dz2     :     0.036193  d :     0.243813
      dxz     :     0.013820
      dyz     :     0.077181
      dx2y2   :     0.065068
      dxy     :     0.051551
      f0      :     0.002054  f :     0.024947
      f+1     :     0.002857
      f-1     :     0.003997
      f+2     :     0.001861
      f-2     :     0.003909
      f+3     :     0.004007
      f-3     :     0.006260
  9 C s       :     2.690855  s :     2.690855
      pz      :     0.782639  p :     2.746928
      px      :     0.979473
      py      :     0.984816
      dz2     :     0.032769  d :     0.502554
      dxz     :     0.076379
      dyz     :     0.090812
      dx2y2   :     0.144756
      dxy     :     0.157838
      f0      :     0.004348  f :     0.054327
      f+1     :     0.004073
      f-1     :     0.004428
      f+2     :     0.006537
      f-2     :     0.007312
      f+3     :     0.009625
      f-3     :     0.018004
 10 C s       :     2.690073  s :     2.690073
      pz      :     0.900256  p :     2.856613
      px      :     0.963270
      py      :     0.993087
      dz2     :     0.031754  d :     0.485509
      dxz     :     0.055923
      dyz     :     0.068395
      dx2y2   :     0.175246
      dxy     :     0.154191
      f0      :     0.004281  f :     0.053329
      f+1     :     0.004501
      f-1     :     0.004997
      f+2     :     0.005624
      f-2     :     0.004835
      f+3     :     0.010628
      f-3     :     0.018463
 11 C s       :     2.798670  s :     2.798670
      pz      :     0.857061  p :     2.846146
      px      :     0.876325
      py      :     1.112760
      dz2     :     0.040923  d :     0.429030
      dxz     :     0.018396
      dyz     :     0.121022
      dx2y2   :     0.126522
      dxy     :     0.122167
      f0      :     0.006817  f :     0.062605
      f+1     :     0.002240
      f-1     :     0.008432
      f+2     :     0.006564
      f-2     :     0.004747
      f+3     :     0.016939
      f-3     :     0.016866
 12 N s       :     3.295656  s :     3.295656
      pz      :     1.005713  p :     3.491757
      px      :     1.052239
      py      :     1.433805
      dz2     :     0.011420  d :     0.109413
      dxz     :     0.003268
      dyz     :     0.028552
      dx2y2   :     0.034105
      dxy     :     0.032069
      f0      :     0.001765  f :     0.016707
      f+1     :     0.000542
      f-1     :     0.002448
      f+2     :     0.001853
      f-2     :     0.001082
      f+3     :     0.004503
      f-3     :     0.004513
 13 C s       :     2.800680  s :     2.800680
      pz      :     0.857983  p :     2.845066
      px      :     1.139628
      py      :     0.847455
      dz2     :     0.041712  d :     0.428365
      dxz     :     0.131687
      dyz     :     0.005379
      dx2y2   :     0.123142
      dxy     :     0.126445
      f0      :     0.006793  f :     0.062973
      f+1     :     0.009256
      f-1     :     0.001433
      f+2     :     0.009802
      f-2     :     0.001527
      f+3     :     0.016975
      f-3     :     0.017187
 14 N s       :     3.297787  s :     3.297787
      pz      :     1.002772  p :     3.496248
      px      :     1.469584
      py      :     1.023892
      dz2     :     0.011395  d :     0.109131
      dxz     :     0.030612
      dyz     :     0.001281
      dx2y2   :     0.033593
      dxy     :     0.032250
      f0      :     0.001767  f :     0.016748
      f+1     :     0.002600
      f-1     :     0.000395
      f+2     :     0.002499
      f-2     :     0.000462
      f+3     :     0.004491
      f-3     :     0.004533
 15 C s       :     2.690183  s :     2.690183
      pz      :     0.893203  p :     2.853966
      px      :     0.964758
      py      :     0.996006
      dz2     :     0.031543  d :     0.486696
      dxz     :     0.056669
      dyz     :     0.069854
      dx2y2   :     0.168763
      dxy     :     0.159867
      f0      :     0.004332  f :     0.053825
      f+1     :     0.004530
      f-1     :     0.004958
      f+2     :     0.005377
      f-2     :     0.005379
      f+3     :     0.010869
      f-3     :     0.018381
 16 C s       :     2.799964  s :     2.799964
      pz      :     0.857026  p :     2.845790
      px      :     0.902312
      py      :     1.086452
      dz2     :     0.041173  d :     0.422892
      dxz     :     0.027051
      dyz     :     0.109042
      dx2y2   :     0.124079
      dxy     :     0.121547
      f0      :     0.006834  f :     0.062692
      f+1     :     0.002883
      f-1     :     0.007823
      f+2     :     0.004200
      f-2     :     0.007115
      f+3     :     0.016602
      f-3     :     0.017235
 17 N s       :     3.298515  s :     3.298515
      pz      :     1.001777  p :     3.491137
      px      :     1.092610
      py      :     1.396750
      dz2     :     0.011394  d :     0.109355
      dxz     :     0.005850
      dyz     :     0.026015
      dx2y2   :     0.033242
      dxy     :     0.032854
      f0      :     0.001768  f :     0.016773
      f+1     :     0.000733
      f-1     :     0.002267
      f+2     :     0.001189
      f-2     :     0.001759
      f+3     :     0.004509
      f-3     :     0.004547
 18 C s       :     2.800651  s :     2.800651
      pz      :     0.857609  p :     2.844989
      px      :     1.134937
      py      :     0.852443
      dz2     :     0.041412  d :     0.424901
      dxz     :     0.128464
      dyz     :     0.007509
      dx2y2   :     0.122724
      dxy     :     0.124792
      f0      :     0.006825  f :     0.062966
      f+1     :     0.009156
      f-1     :     0.001547
      f+2     :     0.009245
      f-2     :     0.002156
      f+3     :     0.016989
      f-3     :     0.017047
 19 N s       :     3.298331  s :     3.298331
      pz      :     1.001253  p :     3.493617
      px      :     1.462116
      py      :     1.030248
      dz2     :     0.011393  d :     0.109124
      dxz     :     0.030102
      dyz     :     0.001796
      dx2y2   :     0.033378
      dxy     :     0.032455
      f0      :     0.001768  f :     0.016762
      f+1     :     0.002563
      f-1     :     0.000433
      f+2     :     0.002336
      f-2     :     0.000634
      f+3     :     0.004496
      f-3     :     0.004532
 20 H s       :     0.791036  s :     0.791036
      pz      :     0.013745  p :     0.064262
      px      :     0.035026
      py      :     0.015492
 21 H s       :     0.786725  s :     0.786725
      pz      :     0.029617  p :     0.063058
      px      :     0.013593
      py      :     0.019848
 22 H s       :     0.786643  s :     0.786643
      pz      :     0.029035  p :     0.063046
      px      :     0.013874
      py      :     0.020137


                      *****************************
                      * MAYER POPULATION ANALYSIS *
                      *****************************

  NA   - Mulliken gross atomic population
  ZA   - Total nuclear charge
  QA   - Mulliken gross atomic charge
  VA   - Mayer's total valence
  BVA  - Mayer's bonded valence
  FA   - Mayer's free valence

  ATOM       NA         ZA         QA         VA         BVA        FA
  0 F      9.1609     9.0000    -0.1609     1.1527     1.1527    -0.0000
  1 C      5.7269     6.0000     0.2731     3.8776     3.8776    -0.0000
  2 C      5.7276     6.0000     0.2724     3.8820     3.8820    -0.0000
  3 F      9.1611     9.0000    -0.1611     1.1547     1.1547    -0.0000
  4 C      6.1902     6.0000    -0.1902     4.1078     4.1078    -0.0000
  5 C      5.6914     6.0000     0.3086     3.8126     3.8126    -0.0000
  6 F      9.1825     9.0000    -0.1825     1.1369     1.1369    -0.0000
  7 C      6.0734     6.0000    -0.0734     3.8110     3.8110    -0.0000
  8 C      6.4416     6.0000    -0.4416     3.8881     3.8881    -0.0000
  9 C      6.0126     6.0000    -0.0126     3.8922     3.8922    -0.0000
 10 C      5.5901     6.0000     0.4099     3.6445     3.6445    -0.0000
 11 C      6.2047     6.0000    -0.2047     4.0240     4.0240    -0.0000
 12 N      7.0245     7.0000    -0.0245     3.0892     3.0892    -0.0000
 13 C      6.2389     6.0000    -0.2389     4.0563     4.0563    -0.0000
 14 N      7.0389     7.0000    -0.0389     3.0982     3.0982    -0.0000
 15 C      5.5627     6.0000     0.4373     3.6221     3.6221    -0.0000
 16 C      6.2237     6.0000    -0.2237     4.0477     4.0477    -0.0000
 17 N      7.0351     7.0000    -0.0351     3.0944     3.0944    -0.0000
 18 C      6.2216     6.0000    -0.2216     4.0452     4.0452    -0.0000
 19 N      7.0376     7.0000    -0.0376     3.0978     3.0978    -0.0000
 20 H      0.8229     1.0000     0.1771     0.9697     0.9697    -0.0000
 21 H      0.8156     1.0000     0.1844     0.9501     0.9501    -0.0000
 22 H      0.8155     1.0000     0.1845     0.9501     0.9501    -0.0000

  Mayer bond orders larger than 0.100000
B(  0-F ,  1-C ) :   0.9964 B(  1-C ,  2-C ) :   1.7252 B(  1-C ,  9-C ) :   1.1067 
B(  2-C ,  3-F ) :   1.0292 B(  2-C ,  4-C ) :   1.0597 B(  4-C ,  5-C ) :   1.0689 
B(  4-C , 15-C ) :   1.5782 B(  5-C ,  6-F ) :   0.9969 B(  5-C ,  7-C ) :   1.7826 
B(  7-C ,  8-C ) :   0.9582 B(  7-C ,  9-C ) :   0.9767 B(  8-C , 20-H ) :   0.9590 
B(  8-C , 21-H ) :   0.9583 B(  8-C , 22-H ) :   0.9586 B(  9-C , 10-C ) :   1.5840 
B( 10-C , 11-C ) :   0.9713 B( 10-C , 13-C ) :   0.9321 B( 11-C , 12-N ) :   2.9672 
B( 13-C , 14-N ) :   2.9866 B( 15-C , 16-C ) :   0.9513 B( 15-C , 18-C ) :   0.9498 
B( 16-C , 17-N ) :   2.9815 B( 18-C , 19-N ) :   2.9822 

-------
TIMINGS
-------

Total SCF time: 0 days 0 hours 8 min 39 sec 

Total time                  ....     519.983 sec
Sum of individual times     ....     518.328 sec  ( 99.7%)

Fock matrix formation       ....     513.530 sec  ( 98.8%)
  XC integration            ....       4.392 sec  (  0.9% of F)
    Basis function eval.    ....       0.767 sec  ( 17.5% of XC)
    Density eval.           ....       1.215 sec  ( 27.7% of XC)
    XC-Functional eval.     ....       0.218 sec  (  5.0% of XC)
    XC-Potential eval.      ....       1.594 sec  ( 36.3% of XC)
Diagonalization             ....       0.398 sec  (  0.1%)
Density matrix formation    ....       0.052 sec  (  0.0%)
Population analysis         ....       0.301 sec  (  0.1%)
Initial guess               ....       0.425 sec  (  0.1%)
Orbital Transformation      ....       0.000 sec  (  0.0%)
Orbital Orthonormalization  ....       0.382 sec  (  0.1%)
DIIS solution               ....       0.138 sec  (  0.0%)
SOSCF solution              ....       1.672 sec  (  0.3%)
Grid generation             ....       1.814 sec  (  0.3%)


-------------------------------------------------------------------------------
                          DFT DISPERSION CORRECTION                            
                                                                               
                              DFTD3 V3.1  Rev 1                                
                              USING zero damping                               
-------------------------------------------------------------------------------
The omegaB97X-D3 functional is recognized. Fit by Chai et al.
Active option DFTDOPT                   ...         3   

molecular C6(AA) [au] = 9495.334912 


            DFT-D V3
 parameters
 s6 scaling factor         :     1.0000 
 rs6 scaling factor        :     1.2810 
 s8 scaling factor         :     1.0000 
 rs8 scaling factor        :     1.0940 
 Damping factor alpha6     :    14.0000 
 Damping factor alpha8     :    16.0000 
 ad hoc parameters k1-k3   :    16.0000     1.3333    -4.0000 

 Edisp/kcal,au: -6.536300614990  -0.010416256946 
 E6   /kcal   :  -2.718034451 
 E8   /kcal   :  -3.818266164 
 % E8         :  58.416318172 

-------------------------   ----------------
Dispersion correction           -0.010416257
-------------------------   ----------------


-------------------------   --------------------
FINAL SINGLE POINT ENERGY     -1015.669927040535
-------------------------   --------------------

                                *** OPTIMIZATION RUN DONE ***

                            ***************************************
                            *     ORCA property calculations      *
                            ***************************************

                                    ---------------------
                                    Active property flags
                                    ---------------------
   (+) Dipole Moment


------------------------------------------------------------------------------
                       ORCA ELECTRIC PROPERTIES CALCULATION
------------------------------------------------------------------------------

Dipole Moment Calculation                       ... on
Quadrupole Moment Calculation                   ... off
Polarizability Calculation                      ... off
GBWName                                         ... F3-R-TCNQ.gbw
Electron density file                           ... F3-R-TCNQ.scfp
The origin for moment calculation is the CENTER OF MASS  = ( 6.918346, -0.087114 -0.205981)

-------------
DIPOLE MOMENT
-------------
                                X             Y             Z
Electronic contribution:     -6.30148       8.85297      -0.09592
Nuclear contribution   :      7.05843      -9.64195       0.09553
                        -----------------------------------------
Total Dipole Moment    :      0.75695      -0.78898      -0.00039
                        -----------------------------------------
Magnitude (a.u.)       :      1.09337
Magnitude (Debye)      :      2.77914



--------------------
Rotational spectrum 
--------------------
 
Rotational constants in cm-1:     0.020982     0.008048     0.005823 
Rotational constants in MHz :   629.020001   241.286523   174.582152 

 Dipole components along the rotational axes: 
x,y,z [a.u.] :    -0.358590     1.032849    -0.010212 
x,y,z [Debye]:    -0.911463     2.625293    -0.025958 

 
--------------------------------------------------------------------------
[[59533,1],0]: A high-performance Open MPI point-to-point messaging module
was unable to find any relevant network interfaces:

Module: OpenFabrics (openib)
  Host: compute-0-11

Another transport will be used instead, although this may result in
lower performance.

NOTE: You can disable this warning by setting the MCA parameter
btl_base_warn_component_unused to 0.
--------------------------------------------------------------------------
[compute-0-11.local:40164] 7 more processes have sent help message help-mpi-btl-base.txt / btl:no-nics
[compute-0-11.local:40164] Set MCA parameter "orte_base_help_aggregate" to 0 to see all help / error messages

Timings for individual modules:

Sum of individual times         ...    15021.448 sec (= 250.357 min)
GTO integral calculation        ...       15.919 sec (=   0.265 min)   0.1 %
SCF iterations                  ...     9301.213 sec (= 155.020 min)  61.9 %
SCF Gradient evaluation         ...     5702.076 sec (=  95.035 min)  38.0 %
Geometry relaxation             ...        2.239 sec (=   0.037 min)   0.0 %
                             ****ORCA TERMINATED NORMALLY****
TOTAL RUN TIME: 0 days 4 hours 10 minutes 24 seconds 721 msec
