Warning: no access to tty (Bad file descriptor).
Thus no job control in this shell.

                                 *****************
                                 * O   R   C   A *
                                 *****************

           --- An Ab Initio, DFT and Semiempirical electronic structure package ---

                  #######################################################
                  #                        -***-                        #
                  #          Department of theory and spectroscopy      #
                  #               Directorship: Frank Neese             #
                  #        Max Planck Institute fuer Kohlenforschung    #
                  #                Kaiser Wilhelm Platz 1               #
                  #                 D-45470 Muelheim/Ruhr               #
                  #                      Germany                        #
                  #                                                     #
                  #                  All rights reserved                #
                  #                        -***-                        #
                  #######################################################


                         Program Version 4.2.1 -  RELEASE  -


 With contributions from (in alphabetic order):
   Daniel Aravena         : Magnetic Suceptibility
   Michael Atanasov       : Ab Initio Ligand Field Theory (pilot matlab implementation)
   Alexander A. Auer      : GIAO ZORA, VPT2
   Ute Becker             : Parallelization
   Giovanni Bistoni       : ED, misc. LED, open-shell LED, HFLD
   Martin Brehm           : Molecular dynamics
   Dmytro Bykov           : SCF Hessian
   Vijay G. Chilkuri      : MRCI spin determinant printing, contributions to CSF-ICE
   Dipayan Datta          : RHF DLPNO-CCSD density
   Achintya Kumar Dutta   : EOM-CC, STEOM-CC
   Dmitry Ganyushin       : Spin-Orbit,Spin-Spin,Magnetic field MRCI
   Miquel Garcia          : C-PCM Hessian, Gaussian charge scheme
   Yang Guo               : DLPNO-NEVPT2, CIM, IAO-localization
   Andreas Hansen         : Spin unrestricted coupled pair/coupled cluster methods
   Benjamin Helmich-Paris : CASSCF linear response (MC-RPA)
   Lee Huntington         : MR-EOM, pCC
   Robert Izsak           : Overlap fitted RIJCOSX, COSX-SCS-MP3, EOM
   Christian Kollmar      : KDIIS, OOCD, Brueckner-CCSD(T), CCSD density
   Simone Kossmann        : Meta GGA functionals, TD-DFT gradient, OOMP2, MP2 Hessian
   Martin Krupicka        : AUTO-CI
   Lucas Lang             : DCDCAS
   Dagmar Lenk            : GEPOL surface, SMD
   Dimitrios Liakos       : Extrapolation schemes; Compound Job, initial MDCI parallelization
   Dimitrios Manganas     : Further ROCIS development; embedding schemes
   Dimitrios Pantazis     : SARC Basis sets
   Taras Petrenko         : DFT Hessian,TD-DFT gradient, ASA, ECA, R-Raman, ABS, FL, XAS/XES, NRVS
   Peter Pinski           : DLPNO-MP2, DLPNO-MP2 Gradient
   Christoph Reimann      : Effective Core Potentials
   Marius Retegan         : Local ZFS, SOC
   Christoph Riplinger    : Optimizer, TS searches, QM/MM, DLPNO-CCSD(T), (RO)-DLPNO pert. Triples
   Tobias Risthaus        : Range-separated hybrids, TD-DFT gradient, RPA, STAB
   Michael Roemelt        : Original ROCIS implementation
   Masaaki Saitow         : Open-shell DLPNO-CCSD energy and density
   Barbara Sandhoefer     : DKH picture change effects
   Avijit Sen             : IP-ROCIS
   Kantharuban Sivalingam : CASSCF convergence, NEVPT2, FIC-MRCI
   Bernardo de Souza      : ESD, SOC TD-DFT
   Georgi Stoychev        : AutoAux, RI-MP2 NMR
   Willem Van den Heuvel  : Paramagnetic NMR
   Boris Wezisla          : Elementary symmetry handling
   Frank Wennmohs         : Technical directorship


 We gratefully acknowledge several colleagues who have allowed us to
 interface, adapt or use parts of their codes:
   Stefan Grimme, W. Hujo, H. Kruse,             : VdW corrections, initial TS optimization,
                  C. Bannwarth                     DFT functionals, gCP, sTDA/sTD-DF
   Ed Valeev, F. Pavosevic, A. Kumar             : LibInt (2-el integral package), F12 methods
   Garnet Chan, S. Sharma, J. Yang, R. Olivares  : DMRG
   Ulf Ekstrom                                   : XCFun DFT Library
   Mihaly Kallay                                 : mrcc  (arbitrary order and MRCC methods)
   Andreas Klamt, Michael Diedenhofen            : otool_cosmo (COSMO solvation model)
   Jiri Pittner, Ondrej Demel                    : Mk-CCSD
   Frank Weinhold                                : gennbo (NPA and NBO analysis)
   Christopher J. Cramer and Donald G. Truhlar   : smd solvation model
   Lars Goerigk                                  : TD-DFT with DH, B97 family of functionals
   V. Asgeirsson, H. Jonsson                     : NEB implementation
   FAccTs GmbH                                   : IRC, NEB, NEB-TS, Multilevel, MM, QM/MM, CI optimization
   S Lehtola, MJT Oliveira, MAL Marques          : LibXC Library


 Your calculation uses the libint2 library for the computation of 2-el integrals
 For citations please refer to: http://libint.valeyev.net

 Your ORCA version has been built with support for libXC version: 4.2.3
 For citations please refer to: https://tddft.org/programs/libxc/

 This ORCA versions uses:
   CBLAS   interface :  Fast vector & matrix operations
   LAPACKE interface :  Fast linear algebra routines
   SCALAPACK package :  Parallel linear algebra routines



            !!!!!!!!!!!!!!!!!!!!!!!!!!!!!!!!!!!!!!!!!!!!!!!!!!!!!!!!
                                 INPUT ERROR
            UNRECOGNIZED OR DUPLICATED KEYWORD(S) IN SIMPLE INPUT LINE
                        DEF2-TZVP/J  
            !!!!!!!!!!!!!!!!!!!!!!!!!!!!!!!!!!!!!!!!!!!!!!!!!!!!!!!!
[file orca_main/maininp4.cpp, line 9978]: 

[file orca_main/maininp4.cpp, line 9978]: 

Warning: no access to tty (Bad file descriptor).
Thus no job control in this shell.

                                 *****************
                                 * O   R   C   A *
                                 *****************

           --- An Ab Initio, DFT and Semiempirical electronic structure package ---

                  #######################################################
                  #                        -***-                        #
                  #          Department of theory and spectroscopy      #
                  #               Directorship: Frank Neese             #
                  #        Max Planck Institute fuer Kohlenforschung    #
                  #                Kaiser Wilhelm Platz 1               #
                  #                 D-45470 Muelheim/Ruhr               #
                  #                      Germany                        #
                  #                                                     #
                  #                  All rights reserved                #
                  #                        -***-                        #
                  #######################################################


                         Program Version 4.2.1 -  RELEASE  -


 With contributions from (in alphabetic order):
   Daniel Aravena         : Magnetic Suceptibility
   Michael Atanasov       : Ab Initio Ligand Field Theory (pilot matlab implementation)
   Alexander A. Auer      : GIAO ZORA, VPT2
   Ute Becker             : Parallelization
   Giovanni Bistoni       : ED, misc. LED, open-shell LED, HFLD
   Martin Brehm           : Molecular dynamics
   Dmytro Bykov           : SCF Hessian
   Vijay G. Chilkuri      : MRCI spin determinant printing, contributions to CSF-ICE
   Dipayan Datta          : RHF DLPNO-CCSD density
   Achintya Kumar Dutta   : EOM-CC, STEOM-CC
   Dmitry Ganyushin       : Spin-Orbit,Spin-Spin,Magnetic field MRCI
   Miquel Garcia          : C-PCM Hessian, Gaussian charge scheme
   Yang Guo               : DLPNO-NEVPT2, CIM, IAO-localization
   Andreas Hansen         : Spin unrestricted coupled pair/coupled cluster methods
   Benjamin Helmich-Paris : CASSCF linear response (MC-RPA)
   Lee Huntington         : MR-EOM, pCC
   Robert Izsak           : Overlap fitted RIJCOSX, COSX-SCS-MP3, EOM
   Christian Kollmar      : KDIIS, OOCD, Brueckner-CCSD(T), CCSD density
   Simone Kossmann        : Meta GGA functionals, TD-DFT gradient, OOMP2, MP2 Hessian
   Martin Krupicka        : AUTO-CI
   Lucas Lang             : DCDCAS
   Dagmar Lenk            : GEPOL surface, SMD
   Dimitrios Liakos       : Extrapolation schemes; Compound Job, initial MDCI parallelization
   Dimitrios Manganas     : Further ROCIS development; embedding schemes
   Dimitrios Pantazis     : SARC Basis sets
   Taras Petrenko         : DFT Hessian,TD-DFT gradient, ASA, ECA, R-Raman, ABS, FL, XAS/XES, NRVS
   Peter Pinski           : DLPNO-MP2, DLPNO-MP2 Gradient
   Christoph Reimann      : Effective Core Potentials
   Marius Retegan         : Local ZFS, SOC
   Christoph Riplinger    : Optimizer, TS searches, QM/MM, DLPNO-CCSD(T), (RO)-DLPNO pert. Triples
   Tobias Risthaus        : Range-separated hybrids, TD-DFT gradient, RPA, STAB
   Michael Roemelt        : Original ROCIS implementation
   Masaaki Saitow         : Open-shell DLPNO-CCSD energy and density
   Barbara Sandhoefer     : DKH picture change effects
   Avijit Sen             : IP-ROCIS
   Kantharuban Sivalingam : CASSCF convergence, NEVPT2, FIC-MRCI
   Bernardo de Souza      : ESD, SOC TD-DFT
   Georgi Stoychev        : AutoAux, RI-MP2 NMR
   Willem Van den Heuvel  : Paramagnetic NMR
   Boris Wezisla          : Elementary symmetry handling
   Frank Wennmohs         : Technical directorship


 We gratefully acknowledge several colleagues who have allowed us to
 interface, adapt or use parts of their codes:
   Stefan Grimme, W. Hujo, H. Kruse,             : VdW corrections, initial TS optimization,
                  C. Bannwarth                     DFT functionals, gCP, sTDA/sTD-DF
   Ed Valeev, F. Pavosevic, A. Kumar             : LibInt (2-el integral package), F12 methods
   Garnet Chan, S. Sharma, J. Yang, R. Olivares  : DMRG
   Ulf Ekstrom                                   : XCFun DFT Library
   Mihaly Kallay                                 : mrcc  (arbitrary order and MRCC methods)
   Andreas Klamt, Michael Diedenhofen            : otool_cosmo (COSMO solvation model)
   Jiri Pittner, Ondrej Demel                    : Mk-CCSD
   Frank Weinhold                                : gennbo (NPA and NBO analysis)
   Christopher J. Cramer and Donald G. Truhlar   : smd solvation model
   Lars Goerigk                                  : TD-DFT with DH, B97 family of functionals
   V. Asgeirsson, H. Jonsson                     : NEB implementation
   FAccTs GmbH                                   : IRC, NEB, NEB-TS, Multilevel, MM, QM/MM, CI optimization
   S Lehtola, MJT Oliveira, MAL Marques          : LibXC Library


 Your calculation uses the libint2 library for the computation of 2-el integrals
 For citations please refer to: http://libint.valeyev.net

 Your ORCA version has been built with support for libXC version: 4.2.3
 For citations please refer to: https://tddft.org/programs/libxc/

 This ORCA versions uses:
   CBLAS   interface :  Fast vector & matrix operations
   LAPACKE interface :  Fast linear algebra routines
   SCALAPACK package :  Parallel linear algebra routines


Your calculation utilizes the atom-pairwise dispersion correction
with the zero-damping scheme (D30)
Cite in your paper:
S.Grimme, J.Antony, S.Ehrlich and H.Krieg, J.Chem.Phys., 132, (2010), 154104 
   

XCFun DFT library Copyright 2009-2010 Ulf Ekstrom and contributors.
See http://admol.org/xcfun for more information. This is free soft-
ware; see the source code for copying conditions. There is ABSOLUTELY
NO WARRANTY; not even for MERCHANTABILITY or FITNESS FOR A PARTICULAR
PURPOSE. For details see the documentation. Scientific users of this 
library should cite U. Ekstrom, L. Visscher, R. Bast, A. J. Thorvald-
sen and K. Ruud; J.Chem.Theor.Comp. 2010, DOI: 10.1021/ct100117s
XCFun Version 0.99 
----- Orbital basis set information -----
Your calculation utilizes the basis: def2-TZVP
   F. Weigend and R. Ahlrichs, Phys. Chem. Chem. Phys. 7, 3297 (2005).

----- AuxJ basis set information -----
Your calculation utilizes the auxiliary basis: def2/J
   F. Weigend, Phys. Chem. Chem. Phys. 8, 1057 (2006).

================================================================================
                                        WARNINGS
                       Please study these warnings very carefully!
================================================================================


WARNING: Geometry Optimization
  ===> : Switching off AutoStart
         For restart on a previous wavefunction, please use MOREAD

INFO   : the flag for use of LIBINT has been found!

================================================================================
                                       INPUT FILE
================================================================================
NAME = p-Me-DMBI-Me2.inp
|  1> # avogadro generated ORCA input file 
|  2> # Basic Mode
|  3> # 
|  4> ! wB97X-D3 OPT def2-TZVP def2/J CPCM
|  5> %cpcm
|  6>   epsilon 3
|  7> end
|  8> %pal
|  9>  nprocs 4
| 10> end 
| 11> 
| 12> * xyz 0 1
| 13>    C        1.00267        2.58484        0.69937
| 14>    C        0.22199        1.32048        0.44847
| 15>    H        0.67918        3.05787        1.64849
| 16>    H        0.83457        3.29456       -0.13945
| 17>    H        2.09487        2.39123        0.75786
| 18>    C       -1.96477        2.64116        0.42069
| 19>    C       -1.19812        1.34888        0.31133
| 20>    H       -3.05499        2.48714        0.27396
| 21>    H       -1.61678        3.34625       -0.36452
| 22>    H       -1.80796        3.09867        1.41867
| 23>    C        0.91762        0.09871        0.30084
| 24>    C       -1.89707        0.15668        0.02162
| 25>    C        0.18926       -1.05147       -0.02041
| 26>    H        1.99515        0.07511        0.37626
| 27>    C       -1.16539       -1.01769       -0.15666
| 28>    H       -2.97044        0.15938       -0.11745
| 29>    N        0.66356       -2.34455       -0.35030
| 30>    N       -1.63112       -2.27489       -0.59422
| 31>    C       -0.46356       -3.09453       -0.90877
| 32>    C       -0.52733       -4.57410       -0.53640
| 33>    H       -0.37291       -3.09935       -2.01741
| 34>    C        2.04569       -2.77788       -0.30260
| 35>    H        2.13040       -3.67486        0.34700
| 36>    H        2.70539       -2.00154        0.13051
| 37>    H        2.40483       -3.01442       -1.32338
| 38>    C       -3.00849       -2.56169       -0.93562
| 39>    H       -3.38123       -1.81176       -1.66256
| 40>    H       -3.63312       -2.52027       -0.01699
| 41>    H       -3.10238       -3.56758       -1.39313
| 42>    C        0.44623       -5.41512       -1.11049
| 43>    C       -1.61372       -6.56099        0.37436
| 44>    C        0.38639       -6.79829       -0.96254
| 45>    H        1.23713       -5.00526       -1.72329
| 46>    C       -0.65258       -7.38400       -0.23659
| 47>    H        1.13528       -7.41504       -1.44531
| 48>    C       -1.55368       -5.16521        0.22788
| 49>    H       -2.42624       -7.00110        0.93909
| 50>    H       -2.32824       -4.56819        0.68583
| 51>    C       -0.73209       -8.88079       -0.15604
| 52>    H       -0.81844       -9.29588       -1.18488
| 53>    H       -1.61685       -9.21539        0.42434
| 54>    H        0.18613       -9.28760        0.31565
| 55> *
| 56> 
| 57> 
| 58>                          ****END OF INPUT****
================================================================================

                       *****************************
                       * Geometry Optimization Run *
                       *****************************

Geometry optimization settings:
Update method            Update   .... BFGS
Choice of coordinates    CoordSys .... Z-matrix Internals
Initial Hessian          InHess   .... Almoef's Model

Convergence Tolerances:
Energy Change            TolE     ....  5.0000e-06 Eh
Max. Gradient            TolMAXG  ....  3.0000e-04 Eh/bohr
RMS Gradient             TolRMSG  ....  1.0000e-04 Eh/bohr
Max. Displacement        TolMAXD  ....  4.0000e-03 bohr
RMS Displacement         TolRMSD  ....  2.0000e-03 bohr
Strict Convergence                ....  False
------------------------------------------------------------------------------
                        ORCA OPTIMIZATION COORDINATE SETUP
------------------------------------------------------------------------------

The optimization will be done in new redundant internal coordinates
Making redundant internal coordinates   ...  (new redundants) done
Evaluating the initial hessian          ...  (Almloef) done
Evaluating the coordinates              ...  done
Calculating the B-matrix                .... done
Calculating the G-matrix                .... done
Diagonalizing the G-matrix              .... done
Small eigenvalue found = 4.347e-03
Small eigenvalue found = 9.457e-03
Small eigenvalue found = 2.042e-02
Small eigenvalue found = 2.787e-02
The first mode is                       ....  106
The number of degrees of freedom        ....  120

    -----------------------------------------------------------------
                    Redundant Internal Coordinates


    -----------------------------------------------------------------
         Definition                    Initial Value    Approx d2E/dq
    -----------------------------------------------------------------
      1. B(C   1,C   0)                  1.5070         0.406526   
      2. B(H   2,C   0)                  1.1087         0.336184   
      3. B(H   3,C   0)                  1.1116         0.332672   
      4. B(H   4,C   0)                  1.1108         0.333648   
      5. B(C   6,C   5)                  1.5066         0.407181   
      6. B(C   6,C   1)                  1.4270         0.545392   
      7. B(H   7,C   5)                  1.1108         0.333634   
      8. B(H   8,C   5)                  1.1112         0.333098   
      9. B(H   9,C   5)                  1.1090         0.335829   
     10. B(C  10,C   1)                  1.4137         0.572796   
     11. B(C  11,C   6)                  1.4120         0.576242   
     12. B(C  12,C  10)                  1.3988         0.604935   
     13. B(H  13,C  10)                  1.0804         0.372993   
     14. B(C  14,C  12)                  1.3619         0.692731   
     15. B(C  14,C  11)                  1.3951         0.613215   
     16. B(H  15,C  11)                  1.0823         0.370370   
     17. B(N  16,C  12)                  1.4163         0.508101   
     18. B(N  17,C  14)                  1.4103         0.519404   
     19. B(C  18,N  17)                  1.4608         0.431432   
     20. B(C  18,N  16)                  1.4645         0.425615   
     21. B(C  19,C  18)                  1.5270         0.377658   
     22. B(H  20,C  18)                  1.1124         0.331715   
     23. B(C  21,N  16)                  1.4493         0.450134   
     24. B(H  22,C  21)                  1.1107         0.333691   
     25. B(H  23,C  21)                  1.1070         0.338275   
     26. B(H  24,C  21)                  1.1077         0.337472   
     27. B(C  25,N  17)                  1.4477         0.452639   
     28. B(H  26,C  25)                  1.1090         0.335883   
     29. B(H  27,C  25)                  1.1116         0.332573   
     30. B(H  28,C  25)                  1.1090         0.335787   
     31. B(C  29,C  19)                  1.4088         0.583105   
     32. B(C  31,C  29)                  1.3923         0.619433   
     33. B(H  32,C  29)                  1.0812         0.371907   
     34. B(C  33,C  31)                  1.3963         0.610611   
     35. B(C  33,C  30)                  1.4051         0.591013   
     36. B(H  34,C  31)                  1.0836         0.368608   
     37. B(C  35,C  30)                  1.4047         0.591888   
     38. B(C  35,C  19)                  1.4096         0.581423   
     39. B(H  36,C  30)                  1.0830         0.369533   
     40. B(H  37,C  35)                  1.0799         0.373769   
     41. B(C  38,C  33)                  1.5011         0.415475   
     42. B(H  39,C  38)                  1.1128         0.331198   
     43. B(H  40,C  38)                  1.1098         0.334869   
     44. B(H  41,C  38)                  1.1096         0.335138   
     45. A(H   3,C   0,H   4)          107.4412         0.283858   
     46. A(C   1,C   0,H   4)          111.8333         0.324758   
     47. A(C   1,C   0,H   3)          109.3724         0.324602   
     48. A(C   1,C   0,H   2)          110.4466         0.325162   
     49. A(H   2,C   0,H   3)          109.2368         0.284192   
     50. A(H   2,C   0,H   4)          108.4323         0.284322   
     51. A(C   0,C   1,C   6)          120.9868         0.393657   
     52. A(C   0,C   1,C  10)          119.1820         0.397056   
     53. A(C   6,C   1,C  10)          119.7930         0.418242   
     54. A(H   8,C   5,H   9)          109.2589         0.284202   
     55. A(H   7,C   5,H   9)          108.3522         0.284273   
     56. A(C   6,C   5,H   9)          110.3185         0.325192   
     57. A(C   6,C   5,H   7)          111.7731         0.324841   
     58. A(H   7,C   5,H   8)          107.5781         0.283913   
     59. A(C   6,C   5,H   8)          109.4887         0.324756   
     60. A(C   5,C   6,C  11)          119.1591         0.397587   
     61. A(C   1,C   6,C  11)          119.7043         0.418689   
     62. A(C   1,C   6,C   5)          121.0988         0.393768   
     63. A(C  12,C  10,H  13)          121.1568         0.353542   
     64. A(C   1,C  10,H  13)          120.1556         0.350293   
     65. A(C   1,C  10,C  12)          118.5816         0.426054   
     66. A(C  14,C  11,H  15)          120.3843         0.353933   
     67. A(C   6,C  11,H  15)          121.0076         0.350230   
     68. A(C   6,C  11,C  14)          118.5123         0.427553   
     69. A(C  14,C  12,N  16)          109.4176         0.424469   
     70. A(C  10,C  12,N  16)          129.0393         0.414335   
     71. A(C  10,C  12,C  14)          121.3667         0.440874   
     72. A(C  12,C  14,N  17)          109.7190         0.426144   
     73. A(C  11,C  14,N  17)          128.0871         0.416967   
     74. A(C  11,C  14,C  12)          121.9898         0.441959   
     75. A(C  12,N  16,C  18)          107.3761         0.386977   
     76. A(C  18,N  16,C  21)          126.3996         0.378918   
     77. A(C  12,N  16,C  21)          125.7823         0.390778   
     78. A(C  18,N  17,C  25)          126.7610         0.380176   
     79. A(C  14,N  17,C  25)          124.3292         0.392666   
     80. A(C  14,N  17,C  18)          107.6405         0.389386   
     81. A(C  19,C  18,H  20)          104.0189         0.320555   
     82. A(N  17,C  18,H  20)          106.3900         0.325674   
     83. A(N  16,C  18,H  20)          108.6366         0.324948   
     84. A(N  17,C  18,C  19)          117.2427         0.370800   
     85. A(N  16,C  18,C  19)          115.8068         0.369936   
     86. A(N  16,C  18,N  17)          104.2222         0.376147   
     87. A(C  18,C  19,C  35)          124.6762         0.392990   
     88. A(C  18,C  19,C  29)          116.7559         0.393188   
     89. A(C  29,C  19,C  35)          118.2800         0.424395   
     90. A(H  23,C  21,H  24)          108.4872         0.285101   
     91. A(H  22,C  21,H  24)          109.9856         0.284497   
     92. A(N  16,C  21,H  24)          110.0435         0.328891   
     93. A(H  22,C  21,H  23)          106.9819         0.284602   
     94. A(N  16,C  21,H  23)          111.8090         0.329020   
     95. A(N  16,C  21,H  22)          109.4779         0.328280   
     96. A(H  27,C  25,H  28)          109.0946         0.284127   
     97. A(H  26,C  25,H  28)          108.3295         0.284565   
     98. A(N  17,C  25,H  28)          110.9470         0.328921   
     99. A(H  26,C  25,H  27)          109.1256         0.284140   
    100. A(N  17,C  25,H  27)          109.4104         0.328399   
    101. A(N  17,C  25,H  26)          109.9010         0.328936   
    102. A(C  31,C  29,H  32)          117.9199         0.354788   
    103. A(C  19,C  29,H  32)          120.6747         0.351177   
    104. A(C  19,C  29,C  31)          121.3350         0.429237   
    105. A(C  35,C  30,H  36)          119.3571         0.351685   
    106. A(C  33,C  30,H  36)          120.1262         0.351597   
    107. A(C  33,C  30,C  35)          120.4915         0.426780   
    108. A(C  33,C  31,H  34)          120.4727         0.353393   
    109. A(C  29,C  31,H  34)          119.2324         0.354253   
    110. A(C  29,C  31,C  33)          120.2617         0.432805   
    111. A(C  30,C  33,C  31)          119.2980         0.429170   
    112. A(C  31,C  33,C  38)          119.0524         0.403090   
    113. A(C  30,C  33,C  38)          121.6336         0.400779   
    114. A(C  30,C  35,H  37)          118.3247         0.352363   
    115. A(C  19,C  35,H  37)          121.3564         0.351302   
    116. A(C  19,C  35,C  30)          120.2875         0.425532   
    117. A(H  40,C  38,H  41)          109.0805         0.284346   
    118. A(H  39,C  38,H  41)          108.6933         0.283859   
    119. A(C  33,C  38,H  41)          110.1559         0.326162   
    120. A(H  39,C  38,H  40)          108.0105         0.283823   
    121. A(C  33,C  38,H  40)          111.7734         0.326118   
    122. A(C  33,C  38,H  39)          109.0538         0.325528   
    123. D(C   6,C   1,C   0,H   2)     60.4275         0.012248   
    124. D(C  10,C   1,C   0,H   2)   -121.8244         0.012248   
    125. D(C   6,C   1,C   0,H   4)   -178.7162         0.012248   
    126. D(C  10,C   1,C   0,H   3)    117.9226         0.012248   
    127. D(C   6,C   1,C   0,H   3)    -59.8256         0.012248   
    128. D(C  10,C   1,C   0,H   4)     -0.9680         0.012248   
    129. D(C   5,C   6,C   1,C  10)   -178.0980         0.020337   
    130. D(C  11,C   6,C   5,H   8)   -117.7429         0.012286   
    131. D(C  11,C   6,C   5,H   9)    121.9829         0.012286   
    132. D(C   5,C   6,C   1,C   0)     -0.3635         0.020337   
    133. D(C   1,C   6,C   5,H   8)     60.0145         0.012286   
    134. D(C   1,C   6,C   5,H   9)    -60.2597         0.012286   
    135. D(C  11,C   6,C   5,H   7)      1.3564         0.012286   
    136. D(C  11,C   6,C   1,C   0)    177.3819         0.020337   
    137. D(C  11,C   6,C   1,C  10)     -0.3526         0.020337   
    138. D(C   1,C   6,C   5,H   7)    179.1138         0.012286   
    139. D(H  13,C  10,C   1,C   6)    178.3008         0.022516   
    140. D(H  13,C  10,C   1,C   0)      0.5253         0.022516   
    141. D(C  12,C  10,C   1,C   0)   -175.7746         0.022516   
    142. D(C  12,C  10,C   1,C   6)      2.0009         0.022516   
    143. D(C  14,C  11,C   6,C   5)    176.1752         0.022800   
    144. D(H  15,C  11,C   6,C   1)   -178.0679         0.022800   
    145. D(H  15,C  11,C   6,C   5)     -0.2786         0.022800   
    146. D(C  14,C  11,C   6,C   1)     -1.6141         0.022800   
    147. D(N  16,C  12,C  10,H  13)     -3.3319         0.025250   
    148. D(C  14,C  12,C  10,C   1)     -1.7092         0.025250   
    149. D(C  14,C  12,C  10,H  13)   -177.9705         0.025250   
    150. D(N  16,C  12,C  10,C   1)    172.9294         0.025250   
    151. D(C  12,C  14,C  11,H  15)    178.4571         0.025986   
    152. D(C  12,C  14,C  11,C   6)      1.9804         0.025986   
    153. D(N  17,C  14,C  11,C   6)   -172.2762         0.025986   
    154. D(N  17,C  14,C  12,N  16)     -0.6913         0.033739   
    155. D(N  17,C  14,C  12,C  10)    174.8954         0.033739   
    156. D(C  11,C  14,C  12,N  16)   -175.8917         0.033739   
    157. D(C  11,C  14,C  12,C  10)     -0.3050         0.033739   
    158. D(N  17,C  14,C  11,H  15)      4.2004         0.025986   
    159. D(C  21,N  16,C  12,C  14)   -178.7801         0.020432   
    160. D(C  21,N  16,C  12,C  10)      6.0726         0.020432   
    161. D(C  18,N  16,C  12,C  14)      8.4712         0.020432   
    162. D(C  18,N  16,C  12,C  10)   -166.6761         0.020432   
    163. D(C  25,N  17,C  14,C  12)   -175.2578         0.021387   
    164. D(C  25,N  17,C  14,C  11)     -0.4309         0.021387   
    165. D(C  18,N  17,C  14,C  12)     -7.3977         0.021387   
    166. D(C  18,N  17,C  14,C  11)    167.4293         0.021387   
    167. D(H  20,C  18,N  17,C  25)     64.8014         0.015869   
    168. D(C  19,C  18,N  17,C  25)    -51.0122         0.015869   
    169. D(C  19,C  18,N  17,C  14)    141.5075         0.015869   
    170. D(N  16,C  18,N  17,C  25)    179.5212         0.015869   
    171. D(N  16,C  18,N  17,C  14)     12.0408         0.015869   
    172. D(H  20,C  18,N  16,C  21)    -71.9873         0.015445   
    173. D(H  20,C  18,N  16,C  12)    100.7039         0.015445   
    174. D(C  19,C  18,N  16,C  21)     44.5673         0.015445   
    175. D(C  19,C  18,N  16,C  12)   -142.7415         0.015445   
    176. D(H  20,C  18,N  17,C  14)   -102.6789         0.015869   
    177. D(N  17,C  18,N  16,C  21)    174.8913         0.015445   
    178. D(N  17,C  18,N  16,C  12)    -12.4175         0.015445   
    179. D(C  35,C  19,C  18,H  20)   -125.2146         0.010651   
    180. D(C  35,C  19,C  18,N  17)     -8.1062         0.010651   
    181. D(C  35,C  19,C  18,N  16)    115.6681         0.010651   
    182. D(C  29,C  19,C  18,H  20)     48.4956         0.010651   
    183. D(C  29,C  19,C  18,N  17)    165.6040         0.010651   
    184. D(C  29,C  19,C  18,N  16)    -70.6218         0.010651   
    185. D(H  22,C  21,N  16,C  12)    124.3602         0.017285   
    186. D(H  24,C  21,N  16,C  18)     56.7464         0.017285   
    187. D(H  24,C  21,N  16,C  12)   -114.6463         0.017285   
    188. D(H  23,C  21,N  16,C  18)    177.3799         0.017285   
    189. D(H  23,C  21,N  16,C  12)      5.9872         0.017285   
    190. D(H  22,C  21,N  16,C  18)    -64.2470         0.017285   
    191. D(H  28,C  25,N  17,C  18)      6.0467         0.017481   
    192. D(H  28,C  25,N  17,C  14)    171.5600         0.017481   
    193. D(H  27,C  25,N  17,C  18)    126.4624         0.017481   
    194. D(H  27,C  25,N  17,C  14)    -68.0243         0.017481   
    195. D(H  26,C  25,N  17,C  18)   -113.7354         0.017481   
    196. D(H  26,C  25,N  17,C  14)     51.7779         0.017481   
    197. D(H  32,C  29,C  19,C  35)    178.5419         0.023372   
    198. D(H  32,C  29,C  19,C  18)      4.4142         0.023372   
    199. D(C  31,C  29,C  19,C  35)      1.6562         0.023372   
    200. D(C  31,C  29,C  19,C  18)   -172.4715         0.023372   
    201. D(H  34,C  31,C  29,H  32)      1.0711         0.026548   
    202. D(H  34,C  31,C  29,C  19)    178.0399         0.026548   
    203. D(C  33,C  31,C  29,H  32)   -176.8430         0.026548   
    204. D(C  33,C  31,C  29,C  19)      0.1257         0.026548   
    205. D(C  38,C  33,C  31,H  34)     -1.1422         0.025753   
    206. D(C  38,C  33,C  31,C  29)    176.7459         0.025753   
    207. D(C  30,C  33,C  31,H  34)   -179.7128         0.025753   
    208. D(C  30,C  33,C  31,C  29)     -1.8247         0.025753   
    209. D(C  38,C  33,C  30,H  36)      1.3561         0.024042   
    210. D(C  38,C  33,C  30,C  35)   -176.8045         0.024042   
    211. D(C  31,C  33,C  30,H  36)    179.8886         0.024042   
    212. D(C  31,C  33,C  30,C  35)      1.7279         0.024042   
    213. D(H  37,C  35,C  30,H  36)     -0.1151         0.024117   
    214. D(H  37,C  35,C  30,C  33)    178.0596         0.024117   
    215. D(C  19,C  35,C  30,H  36)   -178.1031         0.024117   
    216. D(C  19,C  35,C  30,C  33)      0.0716         0.024117   
    217. D(H  37,C  35,C  19,C  29)   -179.6650         0.023231   
    218. D(H  37,C  35,C  19,C  18)     -6.0430         0.023231   
    219. D(C  30,C  35,C  19,C  29)     -1.7390         0.023231   
    220. D(C  30,C  35,C  19,C  18)    171.8830         0.023231   
    221. D(H  41,C  38,C  33,C  31)     60.1632         0.012773   
    222. D(H  41,C  38,C  33,C  30)   -121.3008         0.012773   
    223. D(H  40,C  38,C  33,C  31)   -178.3979         0.012773   
    224. D(H  40,C  38,C  33,C  30)      0.1380         0.012773   
    225. D(H  39,C  38,C  33,C  31)    -59.0442         0.012773   
    226. D(H  39,C  38,C  33,C  30)    119.4917         0.012773   
    -----------------------------------------------------------------

Number of atoms                         .... 42
Number of degrees of freedom            .... 226

         *************************************************************
         *                GEOMETRY OPTIMIZATION CYCLE   1            *
         *************************************************************
---------------------------------
CARTESIAN COORDINATES (ANGSTROEM)
---------------------------------
  C      1.002670    2.584840    0.699370
  C      0.221990    1.320480    0.448470
  H      0.679180    3.057870    1.648490
  H      0.834570    3.294560   -0.139450
  H      2.094870    2.391230    0.757860
  C     -1.964770    2.641160    0.420690
  C     -1.198120    1.348880    0.311330
  H     -3.054990    2.487140    0.273960
  H     -1.616780    3.346250   -0.364520
  H     -1.807960    3.098670    1.418670
  C      0.917620    0.098710    0.300840
  C     -1.897070    0.156680    0.021620
  C      0.189260   -1.051470   -0.020410
  H      1.995150    0.075110    0.376260
  C     -1.165390   -1.017690   -0.156660
  H     -2.970440    0.159380   -0.117450
  N      0.663560   -2.344550   -0.350300
  N     -1.631120   -2.274890   -0.594220
  C     -0.463560   -3.094530   -0.908770
  C     -0.527330   -4.574100   -0.536400
  H     -0.372910   -3.099350   -2.017410
  C      2.045690   -2.777880   -0.302600
  H      2.130400   -3.674860    0.347000
  H      2.705390   -2.001540    0.130510
  H      2.404830   -3.014420   -1.323380
  C     -3.008490   -2.561690   -0.935620
  H     -3.381230   -1.811760   -1.662560
  H     -3.633120   -2.520270   -0.016990
  H     -3.102380   -3.567580   -1.393130
  C      0.446230   -5.415120   -1.110490
  C     -1.613720   -6.560990    0.374360
  C      0.386390   -6.798290   -0.962540
  H      1.237130   -5.005260   -1.723290
  C     -0.652580   -7.384000   -0.236590
  H      1.135280   -7.415040   -1.445310
  C     -1.553680   -5.165210    0.227880
  H     -2.426240   -7.001100    0.939090
  H     -2.328240   -4.568190    0.685830
  C     -0.732090   -8.880790   -0.156040
  H     -0.818440   -9.295880   -1.184880
  H     -1.616850   -9.215390    0.424340
  H      0.186130   -9.287600    0.315650

----------------------------
CARTESIAN COORDINATES (A.U.)
----------------------------
  NO LB      ZA    FRAG     MASS         X           Y           Z
   0 C     6.0000    0    12.011    1.894772    4.884640    1.321618
   1 C     6.0000    0    12.011    0.419500    2.495346    0.847485
   2 H     1.0000    0     1.008    1.283464    5.778537    3.115195
   3 H     1.0000    0     1.008    1.577109    6.225816   -0.263522
   4 H     1.0000    0     1.008    3.958731    4.518770    1.432148
   5 C     6.0000    0    12.011   -3.712877    4.991069    0.794989
   6 C     6.0000    0    12.011   -2.264119    2.549014    0.588328
   7 H     1.0000    0     1.008   -5.773094    4.700013    0.517709
   8 H     1.0000    0     1.008   -3.055271    6.323496   -0.688843
   9 H     1.0000    0     1.008   -3.416549    5.855638    2.680898
  10 C     6.0000    0    12.011    1.734050    0.186535    0.568505
  11 C     6.0000    0    12.011   -3.584943    0.296082    0.040856
  12 C     6.0000    0    12.011    0.357650   -1.986990   -0.038569
  13 H     1.0000    0     1.008    3.770287    0.141937    0.711028
  14 C     6.0000    0    12.011   -2.202268   -1.923155   -0.296044
  15 H     1.0000    0     1.008   -5.613318    0.301185   -0.221948
  16 N     7.0000    0    14.007    1.253947   -4.430557   -0.661971
  17 N     7.0000    0    14.007   -3.082370   -4.298919   -1.122913
  18 C     6.0000    0    12.011   -0.876001   -5.847814   -1.717326
  19 C     6.0000    0    12.011   -0.996509   -8.643796   -1.013649
  20 H     1.0000    0     1.008   -0.704698   -5.856923   -3.812352
  21 C     6.0000    0    12.011    3.865794   -5.249432   -0.571831
  22 H     1.0000    0     1.008    4.025873   -6.944479    0.655735
  23 H     1.0000    0     1.008    5.112446   -3.782362    0.246628
  24 H     1.0000    0     1.008    4.544470   -5.696428   -2.500826
  25 C     6.0000    0    12.011   -5.685222   -4.840893   -1.768066
  26 H     1.0000    0     1.008   -6.389599   -3.423730   -3.141783
  27 H     1.0000    0     1.008   -6.865602   -4.762620   -0.032106
  28 H     1.0000    0     1.008   -5.862649   -6.741749   -2.632634
  29 C     6.0000    0    12.011    0.843252  -10.233094   -2.098522
  30 C     6.0000    0    12.011   -3.049489  -12.398474    0.707438
  31 C     6.0000    0    12.011    0.730171  -12.846906   -1.818937
  32 H     1.0000    0     1.008    2.337837   -9.458571   -3.256546
  33 C     6.0000    0    12.011   -1.233197  -13.953738   -0.447090
  34 H     1.0000    0     1.008    2.145368  -14.012395   -2.731240
  35 C     6.0000    0    12.011   -2.936030   -9.760832    0.430631
  36 H     1.0000    0     1.008   -4.584929  -13.230162    1.774623
  37 H     1.0000    0     1.008   -4.399736   -8.632628    1.296031
  38 C     6.0000    0    12.011   -1.383450  -16.782261   -0.294873
  39 H     1.0000    0     1.008   -1.546627  -17.566667   -2.239099
  40 H     1.0000    0     1.008   -3.055404  -17.414563    0.801886
  41 H     1.0000    0     1.008    0.351735  -17.551020    0.596492

--------------------------------
INTERNAL COORDINATES (ANGSTROEM)
--------------------------------
 C      0   0   0     0.000000000000     0.00000000     0.00000000
 C      1   0   0     1.506989808194     0.00000000     0.00000000
 H      1   2   0     1.108707326304   110.44663188     0.00000000
 H      1   2   3     1.111566048780   109.37244278   239.74695750
 H      1   2   3     1.110768541236   111.83326386   120.85637481
 C      2   1   3     2.554777228723    90.65950486    60.24392402
 C      2   1   3     1.426999072074   120.98683952    60.42747494
 H      6   2   1     1.110779681890   140.34163289   178.39880393
 H      6   2   1     1.111217212025    93.87878654    54.61358656
 H      6   2   1     1.108994525054    94.72929311   304.89910016
 C      2   1   3     1.413654005300   119.18198657   238.17562413
 C      7   2   1     1.412021184898   119.70433244   177.38187488
 C     11   2   1     1.398793724786   118.58159491   184.22542898
 H     11   2   1     1.080424008110   120.15557894     0.52528847
 C     13  11   2     1.361903731326   121.36671056   358.29077233
 H     12   7   2     1.082345098294   121.00757926   181.93211251
 N     13  11   2     1.416278146587   129.03931402   172.92940441
 N     15  13  11     1.410288986875   109.71898356   174.89537305
 C     18  15  13     1.460803814925   107.64053698   352.60232213
 C     19  18  15     1.527040737734   117.24271820   141.50747485
 H     19  18  15     1.112350351508   106.39003273   257.32105225
 C     17  13  11     1.449252743934   125.78234311     6.07255329
 H     22  17  13     1.110733570439   109.47788801   124.36023040
 H     22  17  13     1.107019492918   111.80902855     5.98718873
 H     22  17  13     1.107666249192   110.04352975   245.35365696
 C     18  15  13     1.447741799113   124.32921911   184.74215355
 H     26  18  15     1.108950799675   109.90104840    51.77785943
 H     26  18  15     1.111647124856   109.41035221   291.97570950
 H     26  18  15     1.109029045742   110.94700261   171.55999378
 C     20  19  18     1.408798439132   116.75586669   165.60398500
 C     20  19  18     2.440790626375   153.93654440     1.08369893
 C     30  20  19     1.392346679890   121.33500629   187.52845419
 H     30  20  19     1.081217771589   120.67473496     4.41416446
 C     32  30  20     1.396251505818   120.26169738     0.12567331
 H     32  30  20     1.083643699516   119.23238329   178.03985322
 C     31  20  19     1.404728799591    29.91301342   344.67569149
 H     31  20  19     1.082961465335   149.24336978   347.90973531
 H     36  31  20     1.079858452067   118.32467626   177.98803735
 C     34  32  30     1.501063105502   119.05236081   176.74591852
 H     39  34  32     1.112774809294   109.05384492   300.95578677
 H     39  34  32     1.109774013933   111.77344616   181.60207051
 H     39  34  32     1.109555677107   110.15592486    60.16322518

---------------------------
INTERNAL COORDINATES (A.U.)
---------------------------
 C      0   0   0     0.000000000000     0.00000000     0.00000000
 C      1   0   0     2.847798024097     0.00000000     0.00000000
 H      1   2   0     2.095153209386   110.44663188     0.00000000
 H      1   2   3     2.100555411959   109.37244278   239.74695750
 H      1   2   3     2.099048341112   111.83326386   120.85637481
 C      2   1   3     4.827829295464    90.65950486    60.24392402
 C      2   1   3     2.696637439580   120.98683952    60.42747494
 H      6   2   1     2.099069393897   140.34163289   178.39880393
 H      6   2   1     2.099896206026    93.87878654    54.61358656
 H      6   2   1     2.095695936370    94.72929311   304.89910016
 C      2   1   3     2.671418918137   119.18198657   238.17562413
 C      7   2   1     2.668333334752   119.70433244   177.38187488
 C     11   2   1     2.643337057693   118.58159491   184.22542898
 H     11   2   1     2.041705483841   120.15557894     0.52528847
 C     13  11   2     2.573625072972   121.36671056   358.29077233
 H     12   7   2     2.045335818167   121.00757926   181.93211251
 N     13  11   2     2.676377826507   129.03931402   172.92940441
 N     15  13  11     2.665059954878   109.71898356   174.89537305
 C     18  15  13     2.760519145596   107.64053698   352.60232213
 C     19  18  15     2.885688789659   117.24271820   141.50747485
 H     19  18  15     2.102037529321   106.39003273   257.32105225
 C     17  13  11     2.738690784869   125.78234311     6.07255329
 H     22  17  13     2.098982255882   109.47788801   124.36023040
 H     22  17  13     2.091963666527   111.80902855     5.98718873
 H     22  17  13     2.093185858761   110.04352975   245.35365696
 C     18  15  13     2.735835512955   124.32921911   184.74215355
 H     26  18  15     2.095613307379   109.90104840    51.77785943
 H     26  18  15     2.100708623538   109.41035221   291.97570950
 H     26  18  15     2.095761171017   110.94700261   171.55999378
 C     20  19  18     2.662243227855   116.75586669   165.60398500
 C     20  19  18     4.612425834091   153.93654440     1.08369893
 C     30  20  19     2.631153908466   121.33500629   187.52845419
 H     30  20  19     2.043205479432   120.67473496     4.41416446
 C     32  30  20     2.638532960072   120.26169738     0.12567331
 H     32  30  20     2.047789818834   119.23238329   178.03985322
 C     31  20  19     2.654552723659    29.91301342   344.67569149
 H     31  20  19     2.046500583073   149.24336978   347.90973531
 H     36  31  20     2.040636737806   118.32467626   177.98803735
 C     34  32  30     2.836598179133   119.05236081   176.74591852
 H     39  34  32     2.102839638293   109.05384492   300.95578677
 H     39  34  32     2.097168956875   111.77344616   181.60207051
 H     39  34  32     2.096756360069   110.15592486    60.16322518

---------------------
BASIS SET INFORMATION
---------------------
There are 3 groups of distinct atoms

 Group   1 Type C   : 11s6p2d1f contracted to 5s3p2d1f pattern {62111/411/11/1}
 Group   2 Type H   : 5s1p contracted to 3s1p pattern {311/1}
 Group   3 Type N   : 11s6p2d1f contracted to 5s3p2d1f pattern {62111/411/11/1}

Atom   0C    basis set group =>   1
Atom   1C    basis set group =>   1
Atom   2H    basis set group =>   2
Atom   3H    basis set group =>   2
Atom   4H    basis set group =>   2
Atom   5C    basis set group =>   1
Atom   6C    basis set group =>   1
Atom   7H    basis set group =>   2
Atom   8H    basis set group =>   2
Atom   9H    basis set group =>   2
Atom  10C    basis set group =>   1
Atom  11C    basis set group =>   1
Atom  12C    basis set group =>   1
Atom  13H    basis set group =>   2
Atom  14C    basis set group =>   1
Atom  15H    basis set group =>   2
Atom  16N    basis set group =>   3
Atom  17N    basis set group =>   3
Atom  18C    basis set group =>   1
Atom  19C    basis set group =>   1
Atom  20H    basis set group =>   2
Atom  21C    basis set group =>   1
Atom  22H    basis set group =>   2
Atom  23H    basis set group =>   2
Atom  24H    basis set group =>   2
Atom  25C    basis set group =>   1
Atom  26H    basis set group =>   2
Atom  27H    basis set group =>   2
Atom  28H    basis set group =>   2
Atom  29C    basis set group =>   1
Atom  30C    basis set group =>   1
Atom  31C    basis set group =>   1
Atom  32H    basis set group =>   2
Atom  33C    basis set group =>   1
Atom  34H    basis set group =>   2
Atom  35C    basis set group =>   1
Atom  36H    basis set group =>   2
Atom  37H    basis set group =>   2
Atom  38C    basis set group =>   1
Atom  39H    basis set group =>   2
Atom  40H    basis set group =>   2
Atom  41H    basis set group =>   2
---------------------------------
AUXILIARY/J BASIS SET INFORMATION
---------------------------------
There are 3 groups of distinct atoms

 Group   1 Type C   : 12s5p4d2f1g contracted to 6s4p3d1f1g pattern {711111/2111/211/2/1}
 Group   2 Type H   : 5s2p1d contracted to 3s1p1d pattern {311/2/1}
 Group   3 Type N   : 12s5p4d2f1g contracted to 6s4p3d1f1g pattern {711111/2111/211/2/1}

Atom   0C    basis set group =>   1
Atom   1C    basis set group =>   1
Atom   2H    basis set group =>   2
Atom   3H    basis set group =>   2
Atom   4H    basis set group =>   2
Atom   5C    basis set group =>   1
Atom   6C    basis set group =>   1
Atom   7H    basis set group =>   2
Atom   8H    basis set group =>   2
Atom   9H    basis set group =>   2
Atom  10C    basis set group =>   1
Atom  11C    basis set group =>   1
Atom  12C    basis set group =>   1
Atom  13H    basis set group =>   2
Atom  14C    basis set group =>   1
Atom  15H    basis set group =>   2
Atom  16N    basis set group =>   3
Atom  17N    basis set group =>   3
Atom  18C    basis set group =>   1
Atom  19C    basis set group =>   1
Atom  20H    basis set group =>   2
Atom  21C    basis set group =>   1
Atom  22H    basis set group =>   2
Atom  23H    basis set group =>   2
Atom  24H    basis set group =>   2
Atom  25C    basis set group =>   1
Atom  26H    basis set group =>   2
Atom  27H    basis set group =>   2
Atom  28H    basis set group =>   2
Atom  29C    basis set group =>   1
Atom  30C    basis set group =>   1
Atom  31C    basis set group =>   1
Atom  32H    basis set group =>   2
Atom  33C    basis set group =>   1
Atom  34H    basis set group =>   2
Atom  35C    basis set group =>   1
Atom  36H    basis set group =>   2
Atom  37H    basis set group =>   2
Atom  38C    basis set group =>   1
Atom  39H    basis set group =>   2
Atom  40H    basis set group =>   2
Atom  41H    basis set group =>   2
--------------------------------------------------------------------------
[[56554,1],0]: A high-performance Open MPI point-to-point messaging module
was unable to find any relevant network interfaces:

Module: OpenFabrics (openib)
  Host: compute-1-3

Another transport will be used instead, although this may result in
lower performance.

NOTE: You can disable this warning by setting the MCA parameter
btl_base_warn_component_unused to 0.
--------------------------------------------------------------------------


           ************************************************************
           *        Program running with 4 parallel MPI-processes     *
           *              working on a common directory               *
           ************************************************************
------------------------------------------------------------------------------
                           ORCA GTO INTEGRAL CALCULATION
------------------------------------------------------------------------------

                         BASIS SET STATISTICS AND STARTUP INFO

 # of primitive gaussian shells          ...  532
 # of primitive gaussian functions       ... 1096
 # of contracted shells                  ...  308
 # of contracted basis functions         ...  752
 Highest angular momentum                ...    3
 Maximum contraction depth               ...    6
 Integral package used                   ... LIBINT
 Integral threshhold            Thresh   ...  2.500e-11
 Primitive cut-off              TCut     ...  2.500e-12


------------------------------ INTEGRAL EVALUATION ----------------------------


 * One electron integrals 
 Pre-screening matrix                    ... done
 Shell pair data                         ... done (   0.015 sec)

[compute-1-3.local:14094] 3 more processes have sent help message help-mpi-btl-base.txt / btl:no-nics
[compute-1-3.local:14094] Set MCA parameter "orte_base_help_aggregate" to 0 to see all help / error messages
--------------------------------------------------------------------------
[[56513,1],2]: A high-performance Open MPI point-to-point messaging module
was unable to find any relevant network interfaces:

Module: OpenFabrics (openib)
  Host: compute-1-3

Another transport will be used instead, although this may result in
lower performance.

NOTE: You can disable this warning by setting the MCA parameter
btl_base_warn_component_unused to 0.
--------------------------------------------------------------------------


           ************************************************************
           *        Program running with 4 parallel MPI-processes     *
           *              working on a common directory               *
           ************************************************************
-------------------------------------------------------------------------------
                                 ORCA SCF
-------------------------------------------------------------------------------

------------
SCF SETTINGS
------------
Hamiltonian:
 Density Functional     Method          .... DFT(GTOs)
 Exchange Functional    Exchange        .... WB97X-D3
 Correlation Functional Correlation     .... WB97X-D3
 Gradients option       PostSCFGGA      .... off
 Hybrid DFT is turned on
   Fraction HF Exchange ScalHFX         ....  0.195728
   Scaling of DF-GGA-X  ScalDFX         ....  0.000000
   Scaling of DF-GGA-C  ScalDFC         ....  1.000000
   Scaling of DF-LDA-C  ScalLDAC        ....  1.000000
   Perturbative correction              ....  0.000000
   Density functional embedding theory  .... OFF
 Long-range corrected/Screened/Range-Separated Hybrid DFT is turned on
   Amount of maximum screened exact exchange              ....  0.804272
   Range separation parameter mu (erf(mu*r12)/r12)        ....  0.250000


General Settings:
 Integral files         IntName         .... p-Me-DMBI-Me2
 Hartree-Fock type      HFTyp           .... RHF
 Total Charge           Charge          ....    0
 Multiplicity           Mult            ....    1
 Number of Electrons    NEL             ....  144
 Basis Dimension        Dim             ....  752
 Nuclear Repulsion      ENuc            ....   1495.1013428815 Eh

Convergence Acceleration:
 DIIS                   CNVDIIS         .... on
   Start iteration      DIISMaxIt       ....    12
   Startup error        DIISStart       ....  0.200000
   # of expansion vecs  DIISMaxEq       ....     5
   Bias factor          DIISBfac        ....   1.050
   Max. coefficient     DIISMaxC        ....  10.000
 Newton-Raphson         CNVNR           .... off
 SOSCF                  CNVSOSCF        .... on
   Start iteration      SOSCFMaxIt      ....   150
   Startup grad/error   SOSCFStart      ....  0.003300
 Level Shifting         CNVShift        .... on
   Level shift para.    LevelShift      ....    0.2500
   Turn off err/grad.   ShiftErr        ....    0.0010
 Zerner damping         CNVZerner       .... off
 Static damping         CNVDamp         .... on
   Fraction old density DampFac         ....    0.7000
   Max. Damping (<1)    DampMax         ....    0.9800
   Min. Damping (>=0)   DampMin         ....    0.0000
   Turn off err/grad.   DampErr         ....    0.1000
 Fernandez-Rico         CNVRico         .... off

SCF Procedure:
 Maximum # iterations   MaxIter         ....   125
 SCF integral mode      SCFMode         .... Direct
   Integral package                     .... LIBINT
 Reset frequency        DirectResetFreq ....    20
 Integral Threshold     Thresh          ....  2.500e-11 Eh
 Primitive CutOff       TCut            ....  2.500e-12 Eh

Convergence Tolerance:
 Convergence Check Mode ConvCheckMode   .... Total+1el-Energy
 Convergence forced     ConvForced      .... 0
 Energy Change          TolE            ....  1.000e-08 Eh
 1-El. energy change                    ....  1.000e-05 Eh
 Orbital Gradient       TolG            ....  1.000e-05
 Orbital Rotation angle TolX            ....  1.000e-05
 DIIS Error             TolErr          ....  5.000e-07


Diagonalization of the overlap matrix:
Smallest eigenvalue                        ... 4.850e-06
Time for diagonalization                   ...    0.276 sec
Threshold for overlap eigenvalues          ... 1.000e-08
Number of eigenvalues below threshold      ... 0
Time for construction of square roots      ...    0.104 sec
Total time needed                          ...    0.382 sec

-------------------
DFT GRID GENERATION
-------------------

General Integration Accuracy     IntAcc      ...  4.340
Radial Grid Type                 RadialGrid  ... Gauss-Chebyshev
Angular Grid (max. acc.)         AngularGrid ... Lebedev-110
Angular grid pruning method      GridPruning ... 3 (G Style)
Weight generation scheme         WeightScheme... Becke
Basis function cutoff            BFCut       ...    1.0000e-11
Integration weight cutoff        WCut        ...    1.0000e-14
Grids for H and He will be reduced by one unit

# of grid points (after initial pruning)     ...  50680 (   0.0 sec)
# of grid points (after weights+screening)   ...  45100 (   0.3 sec)
nearest neighbour list constructed           ...    0.0 sec
Grid point re-assignment to atoms done       ...    0.0 sec
Grid point division into batches done        ...    0.0 sec
Reduced shell lists constructed in    0.3 sec

Total number of grid points                  ...    45100
Total number of batches                      ...      729
Average number of points per batch           ...       61
Average number of grid points per atom       ...     1074
Average number of shells per batch           ...   120.47 (39.11%)
Average number of basis functions per batch  ...   284.78 (37.87%)
Average number of large shells per batch     ...    80.92 (67.17%)
Average number of large basis fcns per batch ...   194.74 (68.38%)
Maximum spatial batch extension              ...  15.68, 19.27, 21.40 au
Average spatial batch extension              ...   0.82,  0.88,  1.06 au

Time for grid setup =    0.749 sec

------------------------------
INITIAL GUESS: MODEL POTENTIAL
------------------------------
Loading Hartree-Fock densities                     ... done
Calculating cut-offs                               ... done
Setting up the integral package                    ... done
Initializing the effective Hamiltonian             ... done
Starting the Coulomb interaction                   ... done (   1.0 sec)
Reading the grid                                   ... done
Mapping shells                                     ... done
Starting the XC term evaluation                    ... done (   1.0 sec)
  promolecular density results
     # of electrons  =    144.014621799
     EX              =   -111.654218316
     EC              =     -4.795955508
     EX+EC           =   -116.450173824
Transforming the Hamiltonian                       ... done (   0.1 sec)
Diagonalizing the Hamiltonian                      ... done (   0.2 sec)
Back transforming the eigenvectors                 ... done (   0.0 sec)
Now organizing SCF variables                       ... done
                      ------------------
                      INITIAL GUESS DONE (   3.3 sec)
                      ------------------

--------------------
CPCM SOLVATION MODEL
--------------------
CPCM parameters:
  Epsilon                                         ...       3.0000
  Refrac                                          ...       1.3300
  Rsolv                                           ...       1.3000
  Surface type                                    ...    GEPOL SES
  Epsilon function type                           ...         CPCM
Radii:
 Radius for C  used is    3.7795 Bohr (=   2.0000 Ang.)
 Radius for H  used is    2.4566 Bohr (=   1.3000 Ang.)
 Radius for N  used is    3.4582 Bohr (=   1.8300 Ang.)
Calculating surface                               ...        done! (  0.2s)
GEPOL surface points                              ...         1385
GEPOL Volume                                      ...    2331.4368
GEPOL Surface-area                                ...    1155.5992
Calculating surface distance matrix               ...        done! (  0.0s)
Performing Cholesky decomposition & store         ...        done! (  0.1s)
Overall time for CPCM initialization              ...                 0.3s
--------------
SCF ITERATIONS
--------------
ITER       Energy         Delta-E        Max-DP      RMS-DP      [F,P]     Damp
               ***  Starting incremental Fock matrix formation  ***
[compute-1-3.local:14117] 3 more processes have sent help message help-mpi-btl-base.txt / btl:no-nics
[compute-1-3.local:14117] Set MCA parameter "orte_base_help_aggregate" to 0 to see all help / error messages
  0   -808.2589435095   0.000000000000 0.03340249  0.00058471  0.1717236 0.7000
  1   -808.4285823005  -0.169638790907 0.03055329  0.00047885  0.1042531 0.7000
                               ***Turning on DIIS***
  2   -808.5219441586  -0.093361858130 0.07689060  0.00108567  0.0547148 0.0000
  3   -808.6772924100  -0.155348251424 0.01589429  0.00027894  0.0377981 0.0000
  4   -808.6966430359  -0.019350625925 0.00491473  0.00010365  0.0059422 0.0000
                      *** Initiating the SOSCF procedure ***
                           *** Shutting down DIIS ***
                      *** Re-Reading the Fockian *** 
                      *** Removing any level shift *** 
ITER      Energy       Delta-E        Grad      Rot      Max-DP    RMS-DP
  5   -808.69720239  -0.0005593586  0.001168  0.001168  0.002349  0.000045
               *** Restarting incremental Fock matrix formation ***
  6   -808.69728331  -0.0000809204  0.001014  0.003224  0.002088  0.000033
  7   -808.69730808  -0.0000247619  0.000414  0.002841  0.003068  0.000028
  8   -808.69731335  -0.0000052705  0.000215  0.000364  0.000407  0.000006
  9   -808.69731477  -0.0000014247  0.000078  0.000190  0.000125  0.000003
 10   -808.69731490  -0.0000001267  0.000033  0.000128  0.000102  0.000001
 11   -808.69731494  -0.0000000385  0.000014  0.000082  0.000076  0.000001
 12   -808.69731493   0.0000000037  0.000004  0.000017  0.000017  0.000000
                  ***Gradient check signals convergence***
              ***Rediagonalizing the Fockian in SOSCF/NRSCF***

               *****************************************************
               *                     SUCCESS                       *
               *           SCF CONVERGED AFTER  13 CYCLES          *
               *****************************************************

Setting up the final grid:

General Integration Accuracy     IntAcc      ...  4.670
Radial Grid Type                 RadialGrid  ... Gauss-Chebyshev
Angular Grid (max. acc.)         AngularGrid ... Lebedev-302
Angular grid pruning method      GridPruning ... 3 (G Style)
Weight generation scheme         WeightScheme... Becke
Basis function cutoff            BFCut       ...    1.0000e-11
Integration weight cutoff        WCut        ...    1.0000e-14
Grids for H and He will be reduced by one unit

# of grid points (after initial pruning)     ... 198908 (   0.0 sec)
# of grid points (after weights+screening)   ... 173063 (   1.1 sec)
nearest neighbour list constructed           ...    0.0 sec
Grid point re-assignment to atoms done       ...    0.0 sec
Grid point division into batches done        ...    0.8 sec
Reduced shell lists constructed in    1.8 sec

Total number of grid points                  ...   173063
Total number of batches                      ...     2724
Average number of points per batch           ...       63
Average number of grid points per atom       ...     4121
Average number of shells per batch           ...   109.72 (35.62%)
Average number of basis functions per batch  ...   258.04 (34.31%)
Average number of large shells per batch     ...    71.95 (65.58%)
Average number of large basis fcns per batch ...   171.30 (66.38%)
Maximum spatial batch extension              ...  17.22, 20.47, 23.77 au
Average spatial batch extension              ...   0.57,  0.60,  0.69 au

Final grid set up in    3.2 sec
Final integration                            ... done (   4.2 sec)
Change in XC energy                          ...     0.002869179
Integrated number of electrons               ...   143.999964019
Previous integrated no of electrons          ...   144.016344518

----------------
TOTAL SCF ENERGY
----------------

Total Energy       :         -808.69444575 Eh          -22005.69462 eV

Components:
Nuclear Repulsion  :         1495.10134288 Eh           40683.77586 eV
Electronic Energy  :        -2303.79578863 Eh          -62689.47048 eV
One Electron Energy:        -4063.02939067 Eh         -110560.65052 eV
Two Electron Energy:         1759.23360204 Eh           47871.18004 eV
CPCM Dielectric    :           -0.00867575 Eh              -0.23608 eV

Virial components:
Potential Energy   :        -1612.86076541 Eh          -43888.17266 eV
Kinetic Energy     :          804.16631966 Eh           21882.47804 eV
Virial Ratio       :            2.00563083


DFT components:
N(Alpha)           :       71.999982009518 electrons
N(Beta)            :       71.999982009518 electrons
N(Total)           :      143.999964019036 electrons
E(XC)              :      -81.877974249749 Eh       
DFET-embed. en.    :        0.000000000000 Eh       
CPCM Solvation Model Properties:
Surface-charge          :           -0.04311124
Charge-correction       :           -0.00008100 Eh              -0.00220 eV
Free-energy (cav+disp)  :            0.00559324 Eh               0.15220 eV
Corrected G(solv)       :         -808.68893351 Eh          -22005.54462 eV

---------------
SCF CONVERGENCE
---------------

  Last Energy change         ...    2.5967e-09  Tolerance :   1.0000e-08
  Last MAX-Density change    ...    1.7417e-05  Tolerance :   1.0000e-07
  Last RMS-Density change    ...    2.9081e-07  Tolerance :   5.0000e-09
  Last Orbital Gradient      ...    2.3002e-06  Tolerance :   1.0000e-05
  Last Orbital Rotation      ...    1.0674e-05  Tolerance :   1.0000e-05

             **** THE GBW FILE WAS UPDATED (p-Me-DMBI-Me2.gbw) ****
             **** DENSITY FILE WAS UPDATED (p-Me-DMBI-Me2.scfp) ****
             **** ENERGY FILE WAS UPDATED (p-Me-DMBI-Me2.en.tmp) ****
             **** THE GBW FILE WAS UPDATED (p-Me-DMBI-Me2.gbw) ****
             **** DENSITY FILE WAS UPDATED (p-Me-DMBI-Me2.scfp) ****
----------------
ORBITAL ENERGIES
----------------

  NO   OCC          E(Eh)            E(eV) 
   0   2.0000     -14.430157      -392.6645 
   1   2.0000     -14.429386      -392.6436 
   2   2.0000     -10.352047      -281.6935 
   3   2.0000     -10.305938      -280.4388 
   4   2.0000     -10.305422      -280.4248 
   5   2.0000     -10.300727      -280.2970 
   6   2.0000     -10.297788      -280.2171 
   7   2.0000     -10.289947      -280.0037 
   8   2.0000     -10.289773      -279.9990 
   9   2.0000     -10.283574      -279.8303 
  10   2.0000     -10.281123      -279.7636 
  11   2.0000     -10.279203      -279.7113 
  12   2.0000     -10.276814      -279.6463 
  13   2.0000     -10.272486      -279.5286 
  14   2.0000     -10.272235      -279.5217 
  15   2.0000     -10.271601      -279.5045 
  16   2.0000     -10.264499      -279.3112 
  17   2.0000     -10.264125      -279.3010 
  18   2.0000     -10.263940      -279.2960 
  19   2.0000     -10.263576      -279.2861 
  20   2.0000      -1.104970       -30.0677 
  21   2.0000      -1.009364       -27.4662 
  22   2.0000      -0.980692       -26.6860 
  23   2.0000      -0.960048       -26.1242 
  24   2.0000      -0.904754       -24.6196 
  25   2.0000      -0.879334       -23.9279 
  26   2.0000      -0.866745       -23.5853 
  27   2.0000      -0.863003       -23.4835 
  28   2.0000      -0.850423       -23.1412 
  29   2.0000      -0.810890       -22.0654 
  30   2.0000      -0.805006       -21.9053 
  31   2.0000      -0.769832       -20.9482 
  32   2.0000      -0.769574       -20.9412 
  33   2.0000      -0.722514       -19.6606 
  34   2.0000      -0.712055       -19.3760 
  35   2.0000      -0.691159       -18.8074 
  36   2.0000      -0.678938       -18.4748 
  37   2.0000      -0.667447       -18.1622 
  38   2.0000      -0.615595       -16.7512 
  39   2.0000      -0.604532       -16.4502 
  40   2.0000      -0.589415       -16.0388 
  41   2.0000      -0.579309       -15.7638 
  42   2.0000      -0.565252       -15.3813 
  43   2.0000      -0.556191       -15.1347 
  44   2.0000      -0.549810       -14.9611 
  45   2.0000      -0.538990       -14.6667 
  46   2.0000      -0.534864       -14.5544 
  47   2.0000      -0.526606       -14.3297 
  48   2.0000      -0.523794       -14.2532 
  49   2.0000      -0.520515       -14.1639 
  50   2.0000      -0.518937       -14.1210 
  51   2.0000      -0.517187       -14.0734 
  52   2.0000      -0.510704       -13.8970 
  53   2.0000      -0.495980       -13.4963 
  54   2.0000      -0.486820       -13.2470 
  55   2.0000      -0.478696       -13.0260 
  56   2.0000      -0.473313       -12.8795 
  57   2.0000      -0.471041       -12.8177 
  58   2.0000      -0.468966       -12.7612 
  59   2.0000      -0.465244       -12.6599 
  60   2.0000      -0.462791       -12.5932 
  61   2.0000      -0.449975       -12.2444 
  62   2.0000      -0.432886       -11.7794 
  63   2.0000      -0.430599       -11.7172 
  64   2.0000      -0.424682       -11.5562 
  65   2.0000      -0.424154       -11.5418 
  66   2.0000      -0.370906       -10.0929 
  67   2.0000      -0.358282        -9.7494 
  68   2.0000      -0.342466        -9.3190 
  69   2.0000      -0.324909        -8.8412 
  70   2.0000      -0.297068        -8.0836 
  71   2.0000      -0.236280        -6.4295 
  72   0.0000       0.057064         1.5528 
  73   0.0000       0.057514         1.5650 
  74   0.0000       0.078527         2.1368 
  75   0.0000       0.095180         2.5900 
  76   0.0000       0.115854         3.1525 
  77   0.0000       0.125480         3.4145 
  78   0.0000       0.129481         3.5234 
  79   0.0000       0.132636         3.6092 
  80   0.0000       0.150493         4.0951 
  81   0.0000       0.152394         4.1469 
  82   0.0000       0.156308         4.2534 
  83   0.0000       0.170042         4.6271 
  84   0.0000       0.173558         4.7227 
  85   0.0000       0.177319         4.8251 
  86   0.0000       0.182087         4.9549 
  87   0.0000       0.183951         5.0056 
  88   0.0000       0.187532         5.1030 
  89   0.0000       0.191069         5.1993 
  90   0.0000       0.194479         5.2921 
  91   0.0000       0.200066         5.4441 
  92   0.0000       0.206343         5.6149 
  93   0.0000       0.208010         5.6602 
  94   0.0000       0.211980         5.7683 
  95   0.0000       0.216370         5.8877 
  96   0.0000       0.224055         6.0968 
  97   0.0000       0.228083         6.2064 
  98   0.0000       0.233314         6.3488 
  99   0.0000       0.237454         6.4614 
 100   0.0000       0.241559         6.5732 
 101   0.0000       0.243032         6.6132 
 102   0.0000       0.245195         6.6721 
 103   0.0000       0.258789         7.0420 
 104   0.0000       0.260913         7.0998 
 105   0.0000       0.265176         7.2158 
 106   0.0000       0.269092         7.3224 
 107   0.0000       0.275509         7.4970 
 108   0.0000       0.278659         7.5827 
 109   0.0000       0.286087         7.7848 
 110   0.0000       0.290746         7.9116 
 111   0.0000       0.296297         8.0626 
 112   0.0000       0.299529         8.1506 
 113   0.0000       0.302642         8.2353 
 114   0.0000       0.306729         8.3465 
 115   0.0000       0.309092         8.4108 
 116   0.0000       0.316659         8.6167 
 117   0.0000       0.320176         8.7124 
 118   0.0000       0.328769         8.9462 
 119   0.0000       0.330821         9.0021 
 120   0.0000       0.334374         9.0988 
 121   0.0000       0.341500         9.2927 
 122   0.0000       0.346194         9.4204 
 123   0.0000       0.346912         9.4400 
 124   0.0000       0.350932         9.5494 
 125   0.0000       0.359159         9.7732 
 126   0.0000       0.366982         9.9861 
 127   0.0000       0.370907        10.0929 
 128   0.0000       0.379973        10.3396 
 129   0.0000       0.380748        10.3607 
 130   0.0000       0.387821        10.5531 
 131   0.0000       0.390531        10.6269 
 132   0.0000       0.399961        10.8835 
 133   0.0000       0.404835        11.0161 
 134   0.0000       0.409646        11.1470 
 135   0.0000       0.412844        11.2341 
 136   0.0000       0.417285        11.3549 
 137   0.0000       0.424044        11.5388 
 138   0.0000       0.427844        11.6422 
 139   0.0000       0.432156        11.7596 
 140   0.0000       0.439920        11.9708 
 141   0.0000       0.441916        12.0251 
 142   0.0000       0.444287        12.0897 
 143   0.0000       0.451272        12.2797 
 144   0.0000       0.452436        12.3114 
 145   0.0000       0.456128        12.4119 
 146   0.0000       0.464596        12.6423 
 147   0.0000       0.465978        12.6799 
 148   0.0000       0.469309        12.7705 
 149   0.0000       0.472572        12.8593 
 150   0.0000       0.482039        13.1169 
 151   0.0000       0.484475        13.1832 
 152   0.0000       0.485868        13.2211 
 153   0.0000       0.491229        13.3670 
 154   0.0000       0.497631        13.5412 
 155   0.0000       0.502908        13.6848 
 156   0.0000       0.505669        13.7600 
 157   0.0000       0.513237        13.9659 
 158   0.0000       0.514799        14.0084 
 159   0.0000       0.518525        14.1098 
 160   0.0000       0.520293        14.1579 
 161   0.0000       0.526761        14.3339 
 162   0.0000       0.527853        14.3636 
 163   0.0000       0.532422        14.4879 
 164   0.0000       0.537088        14.6149 
 165   0.0000       0.542434        14.7604 
 166   0.0000       0.546165        14.8619 
 167   0.0000       0.549856        14.9623 
 168   0.0000       0.553089        15.0503 
 169   0.0000       0.559059        15.2128 
 170   0.0000       0.560242        15.2450 
 171   0.0000       0.565787        15.3959 
 172   0.0000       0.567411        15.4400 
 173   0.0000       0.572733        15.5849 
 174   0.0000       0.575803        15.6684 
 175   0.0000       0.576812        15.6958 
 176   0.0000       0.585964        15.9449 
 177   0.0000       0.588462        16.0129 
 178   0.0000       0.596570        16.2335 
 179   0.0000       0.598748        16.2928 
 180   0.0000       0.604992        16.4627 
 181   0.0000       0.609924        16.5969 
 182   0.0000       0.613352        16.6902 
 183   0.0000       0.614753        16.7283 
 184   0.0000       0.621777        16.9194 
 185   0.0000       0.624924        17.0051 
 186   0.0000       0.629927        17.1412 
 187   0.0000       0.633717        17.2443 
 188   0.0000       0.640539        17.4300 
 189   0.0000       0.647239        17.6123 
 190   0.0000       0.655322        17.8322 
 191   0.0000       0.667651        18.1677 
 192   0.0000       0.674952        18.3664 
 193   0.0000       0.679046        18.4778 
 194   0.0000       0.693251        18.8643 
 195   0.0000       0.698613        19.0102 
 196   0.0000       0.703486        19.1428 
 197   0.0000       0.710762        19.3408 
 198   0.0000       0.716667        19.5015 
 199   0.0000       0.722172        19.6513 
 200   0.0000       0.732943        19.9444 
 201   0.0000       0.737698        20.0738 
 202   0.0000       0.739730        20.1291 
 203   0.0000       0.745667        20.2906 
 204   0.0000       0.747819        20.3492 
 205   0.0000       0.753629        20.5073 
 206   0.0000       0.768268        20.9056 
 207   0.0000       0.775865        21.1124 
 208   0.0000       0.781040        21.2532 
 209   0.0000       0.789872        21.4935 
 210   0.0000       0.791469        21.5370 
 211   0.0000       0.795501        21.6467 
 212   0.0000       0.798879        21.7386 
 213   0.0000       0.802503        21.8372 
 214   0.0000       0.809122        22.0173 
 215   0.0000       0.824706        22.4414 
 216   0.0000       0.825283        22.4571 
 217   0.0000       0.833897        22.6915 
 218   0.0000       0.844857        22.9897 
 219   0.0000       0.847664        23.0661 
 220   0.0000       0.861438        23.4409 
 221   0.0000       0.869238        23.6532 
 222   0.0000       0.875137        23.8137 
 223   0.0000       0.881774        23.9943 
 224   0.0000       0.892538        24.2872 
 225   0.0000       0.896838        24.4042 
 226   0.0000       0.897949        24.4344 
 227   0.0000       0.910302        24.7706 
 228   0.0000       0.914338        24.8804 
 229   0.0000       0.922440        25.1009 
 230   0.0000       0.926892        25.2220 
 231   0.0000       0.931854        25.3570 
 232   0.0000       0.947756        25.7897 
 233   0.0000       0.950396        25.8616 
 234   0.0000       0.951079        25.8802 
 235   0.0000       0.964634        26.2490 
 236   0.0000       0.970584        26.4109 
 237   0.0000       0.983361        26.7586 
 238   0.0000       0.987624        26.8746 
 239   0.0000       0.992248        27.0005 
 240   0.0000       1.003933        27.3184 
 241   0.0000       1.014488        27.6056 
 242   0.0000       1.015428        27.6312 
 243   0.0000       1.027006        27.9462 
 244   0.0000       1.040936        28.3253 
 245   0.0000       1.048051        28.5189 
 246   0.0000       1.051651        28.6169 
 247   0.0000       1.058876        28.8135 
 248   0.0000       1.063602        28.9421 
 249   0.0000       1.069350        29.0985 
 250   0.0000       1.072697        29.1896 
 251   0.0000       1.084659        29.5151 
 252   0.0000       1.088426        29.6176 
 253   0.0000       1.099802        29.9271 
 254   0.0000       1.104374        30.0515 
 255   0.0000       1.110726        30.2244 
 256   0.0000       1.130472        30.7617 
 257   0.0000       1.132048        30.8046 
 258   0.0000       1.142320        31.0841 
 259   0.0000       1.145266        31.1643 
 260   0.0000       1.154728        31.4218 
 261   0.0000       1.163891        31.6711 
 262   0.0000       1.166487        31.7417 
 263   0.0000       1.175154        31.9776 
 264   0.0000       1.182941        32.1895 
 265   0.0000       1.193139        32.4670 
 266   0.0000       1.197387        32.5826 
 267   0.0000       1.205922        32.8148 
 268   0.0000       1.214905        33.0592 
 269   0.0000       1.219521        33.1848 
 270   0.0000       1.236428        33.6449 
 271   0.0000       1.237627        33.6775 
 272   0.0000       1.251841        34.0643 
 273   0.0000       1.254257        34.1301 
 274   0.0000       1.273180        34.6450 
 275   0.0000       1.278981        34.8028 
 276   0.0000       1.292089        35.1595 
 277   0.0000       1.302804        35.4511 
 278   0.0000       1.304303        35.4919 
 279   0.0000       1.309958        35.6458 
 280   0.0000       1.328746        36.1570 
 281   0.0000       1.332606        36.2620 
 282   0.0000       1.338345        36.4182 
 283   0.0000       1.343936        36.5704 
 284   0.0000       1.361482        37.0478 
 285   0.0000       1.362711        37.0813 
 286   0.0000       1.370680        37.2981 
 287   0.0000       1.377141        37.4739 
 288   0.0000       1.391727        37.8708 
 289   0.0000       1.397343        38.0236 
 290   0.0000       1.405147        38.2360 
 291   0.0000       1.418570        38.6013 
 292   0.0000       1.433198        38.9993 
 293   0.0000       1.436528        39.0899 
 294   0.0000       1.448419        39.4135 
 295   0.0000       1.451259        39.4908 
 296   0.0000       1.463695        39.8292 
 297   0.0000       1.468859        39.9697 
 298   0.0000       1.479669        40.2638 
 299   0.0000       1.487924        40.4885 
 300   0.0000       1.513976        41.1974 
 301   0.0000       1.523300        41.4511 
 302   0.0000       1.540100        41.9083 
 303   0.0000       1.541340        41.9420 
 304   0.0000       1.549343        42.1598 
 305   0.0000       1.561342        42.4863 
 306   0.0000       1.571434        42.7609 
 307   0.0000       1.579606        42.9833 
 308   0.0000       1.584220        43.1088 
 309   0.0000       1.587057        43.1860 
 310   0.0000       1.596810        43.4514 
 311   0.0000       1.606544        43.7163 
 312   0.0000       1.610921        43.8354 
 313   0.0000       1.614721        43.9388 
 314   0.0000       1.620536        44.0970 
 315   0.0000       1.625158        44.2228 
 316   0.0000       1.627933        44.2983 
 317   0.0000       1.629881        44.3513 
 318   0.0000       1.632602        44.4254 
 319   0.0000       1.634334        44.4725 
 320   0.0000       1.643410        44.7195 
 321   0.0000       1.646059        44.7915 
 322   0.0000       1.651155        44.9302 
 323   0.0000       1.653094        44.9830 
 324   0.0000       1.655159        45.0392 
 325   0.0000       1.663018        45.2530 
 326   0.0000       1.669687        45.4345 
 327   0.0000       1.676107        45.6092 
 328   0.0000       1.677556        45.6486 
 329   0.0000       1.682585        45.7855 
 330   0.0000       1.695588        46.1393 
 331   0.0000       1.703221        46.3470 
 332   0.0000       1.712032        46.5868 
 333   0.0000       1.721231        46.8371 
 334   0.0000       1.725954        46.9656 
 335   0.0000       1.726694        46.9857 
 336   0.0000       1.736514        47.2530 
 337   0.0000       1.741489        47.3883 
 338   0.0000       1.746479        47.5241 
 339   0.0000       1.751397        47.6579 
 340   0.0000       1.766128        48.0588 
 341   0.0000       1.768272        48.1171 
 342   0.0000       1.778602        48.3982 
 343   0.0000       1.784528        48.5595 
 344   0.0000       1.790852        48.7316 
 345   0.0000       1.797637        48.9162 
[...]
      f+3     :     0.012957
      f-3     :     0.025637
 13 H s       :     0.789174  s :     0.789174
      pz      :     0.015776  p :     0.059833
      px      :     0.033303
      py      :     0.010754
 14 C s       :     2.682388  s :     2.682388
      pz      :     0.869991  p :     2.789221
      px      :     0.994766
      py      :     0.924464
      dz2     :     0.059436  d :     0.622856
      dxz     :     0.077394
      dyz     :     0.132304
      dx2y2   :     0.186315
      dxy     :     0.167408
      f0      :     0.005412  f :     0.080767
      f+1     :     0.005258
      f-1     :     0.009040
      f+2     :     0.012432
      f-2     :     0.009371
      f+3     :     0.014444
      f-3     :     0.024810
 15 H s       :     0.789207  s :     0.789207
      pz      :     0.015963  p :     0.059862
      px      :     0.033125
      py      :     0.010774
 16 N s       :     2.892688  s :     2.892688
      pz      :     1.367112  p :     3.624903
      px      :     1.107315
      py      :     1.150476
      dz2     :     0.036766  d :     0.289299
      dxz     :     0.055901
      dyz     :     0.036741
      dx2y2   :     0.080570
      dxy     :     0.079321
      f0      :     0.002104  f :     0.021718
      f+1     :     0.002863
      f-1     :     0.001652
      f+2     :     0.003510
      f-2     :     0.002658
      f+3     :     0.004305
      f-3     :     0.004625
 17 N s       :     2.892391  s :     2.892391
      pz      :     1.342933  p :     3.624084
      px      :     1.133462
      py      :     1.147689
      dz2     :     0.043280  d :     0.289501
      dxz     :     0.056124
      dyz     :     0.040464
      dx2y2   :     0.072043
      dxy     :     0.077590
      f0      :     0.002375  f :     0.021712
      f+1     :     0.002755
      f-1     :     0.002033
      f+2     :     0.002446
      f-2     :     0.003343
      f+3     :     0.004683
      f-3     :     0.004077
 18 C s       :     2.725703  s :     2.725703
      pz      :     0.963279  p :     2.756765
      px      :     0.850879
      py      :     0.942607
      dz2     :     0.168185  d :     0.654207
      dxz     :     0.122556
      dyz     :     0.081111
      dx2y2   :     0.139455
      dxy     :     0.142900
      f0      :     0.008651  f :     0.085273
      f+1     :     0.011443
      f-1     :     0.007819
      f+2     :     0.012588
      f-2     :     0.014499
      f+3     :     0.017457
      f-3     :     0.012816
 19 C s       :     2.704656  s :     2.704656
      pz      :     1.043799  p :     2.877140
      px      :     0.863614
      py      :     0.969728
      dz2     :     0.137668  d :     0.507244
      dxz     :     0.077005
      dyz     :     0.154906
      dx2y2   :     0.076474
      dxy     :     0.061191
      f0      :     0.012452  f :     0.058020
      f+1     :     0.005337
      f-1     :     0.012663
      f+2     :     0.009824
      f-2     :     0.007606
      f+3     :     0.005177
      f-3     :     0.004959
 20 H s       :     0.804508  s :     0.804508
      pz      :     0.035039  p :     0.055462
      px      :     0.010450
      py      :     0.009973
 21 C s       :     2.829604  s :     2.829604
      pz      :     1.084206  p :     3.087964
      px      :     0.917464
      py      :     1.086293
      dz2     :     0.054408  d :     0.339791
      dxz     :     0.117619
      dyz     :     0.020332
      dx2y2   :     0.080507
      dxy     :     0.066924
      f0      :     0.004539  f :     0.040888
      f+1     :     0.005989
      f-1     :     0.003132
      f+2     :     0.006570
      f-2     :     0.004440
      f+3     :     0.006539
      f-3     :     0.009678
 22 H s       :     0.812848  s :     0.812848
      pz      :     0.013360  p :     0.061511
      px      :     0.010886
      py      :     0.037264
 23 H s       :     0.814661  s :     0.814661
      pz      :     0.025269  p :     0.061187
      px      :     0.018164
      py      :     0.017753
 24 H s       :     0.828389  s :     0.828389
      pz      :     0.032581  p :     0.060789
      px      :     0.011912
      py      :     0.016296
 25 C s       :     2.829494  s :     2.829494
      pz      :     1.014152  p :     3.087500
      px      :     0.984908
      py      :     1.088441
      dz2     :     0.116342  d :     0.339478
      dxz     :     0.066686
      dyz     :     0.038853
      dx2y2   :     0.064446
      dxy     :     0.053150
      f0      :     0.004365  f :     0.040892
      f+1     :     0.010722
      f-1     :     0.003714
      f+2     :     0.005961
      f-2     :     0.007002
      f+3     :     0.003093
      f-3     :     0.006034
 26 H s       :     0.828277  s :     0.828277
      pz      :     0.032474  p :     0.060800
      px      :     0.011903
      py      :     0.016424
 27 H s       :     0.814995  s :     0.814995
      pz      :     0.014680  p :     0.061213
      px      :     0.028181
      py      :     0.018353
 28 H s       :     0.812682  s :     0.812682
      pz      :     0.011951  p :     0.061562
      px      :     0.012635
      py      :     0.036976
 29 C s       :     2.753607  s :     2.753607
      pz      :     0.987400  p :     2.926158
      px      :     0.885683
      py      :     1.053075
      dz2     :     0.097816  d :     0.392613
      dxz     :     0.026267
      dyz     :     0.124017
      dx2y2   :     0.063903
      dxy     :     0.080610
      f0      :     0.007476  f :     0.043812
      f+1     :     0.002766
      f-1     :     0.009224
      f+2     :     0.007986
      f-2     :     0.005756
      f+3     :     0.005155
      f-3     :     0.005450
 30 C s       :     2.754716  s :     2.754716
      pz      :     0.985186  p :     2.937559
      px      :     0.900283
      py      :     1.052090
      dz2     :     0.098046  d :     0.385640
      dxz     :     0.025357
      dyz     :     0.124396
      dx2y2   :     0.065463
      dxy     :     0.072379
      f0      :     0.007381  f :     0.043093
      f+1     :     0.002644
      f-1     :     0.009239
      f+2     :     0.007941
      f-2     :     0.005332
      f+3     :     0.005055
      f-3     :     0.005502
 31 C s       :     2.754392  s :     2.754392
      pz      :     1.005767  p :     2.939193
      px      :     0.904631
      py      :     1.028795
      dz2     :     0.079259  d :     0.383779
      dxz     :     0.038570
      dyz     :     0.159656
      dx2y2   :     0.050820
      dxy     :     0.055474
      f0      :     0.009512  f :     0.043062
      f+1     :     0.005246
      f-1     :     0.008459
      f+2     :     0.007377
      f-2     :     0.002491
      f+3     :     0.005488
      f-3     :     0.004489
 32 H s       :     0.788522  s :     0.788522
      pz      :     0.031267  p :     0.058907
      px      :     0.014451
      py      :     0.013189
 33 C s       :     2.712318  s :     2.712318
      pz      :     1.041418  p :     2.870711
      px      :     0.833663
      py      :     0.995630
      dz2     :     0.138247  d :     0.530464
      dxz     :     0.075879
      dyz     :     0.160123
      dx2y2   :     0.074690
      dxy     :     0.081525
      f0      :     0.012534  f :     0.058863
      f+1     :     0.005611
      f-1     :     0.012570
      f+2     :     0.009834
      f-2     :     0.007695
      f+3     :     0.005988
      f-3     :     0.004632
 34 H s       :     0.788699  s :     0.788699
      pz      :     0.023987  p :     0.058717
      px      :     0.013926
      py      :     0.020803
 35 C s       :     2.752923  s :     2.752923
      pz      :     1.006941  p :     2.916106
      px      :     0.873569
      py      :     1.035596
      dz2     :     0.079559  d :     0.388008
      dxz     :     0.041110
      dyz     :     0.158124
      dx2y2   :     0.050290
      dxy     :     0.058923
      f0      :     0.009676  f :     0.044029
      f+1     :     0.005522
      f-1     :     0.008683
      f+2     :     0.007421
      f-2     :     0.002575
      f+3     :     0.005643
      f-3     :     0.004509
 36 H s       :     0.790474  s :     0.790474
      pz      :     0.031216  p :     0.058738
      px      :     0.014718
      py      :     0.012803
 37 H s       :     0.784986  s :     0.784986
      pz      :     0.023792  p :     0.059471
      px      :     0.013130
      py      :     0.022549
 38 C s       :     2.815591  s :     2.815591
      pz      :     1.067875  p :     3.167806
      px      :     1.074806
      py      :     1.025126
      dz2     :     0.048480  d :     0.248681
      dxz     :     0.024538
      dyz     :     0.056604
      dx2y2   :     0.041810
      dxy     :     0.077249
      f0      :     0.003553  f :     0.024448
      f+1     :     0.001491
      f-1     :     0.003144
      f+2     :     0.004480
      f-2     :     0.003064
      f+3     :     0.003850
      f-3     :     0.004865
 39 H s       :     0.806111  s :     0.806111
      pz      :     0.021145  p :     0.061201
      px      :     0.024344
      py      :     0.015712
 40 H s       :     0.810426  s :     0.810426
      pz      :     0.033529  p :     0.060833
      px      :     0.014912
      py      :     0.012392
 41 H s       :     0.805941  s :     0.805941
      pz      :     0.014353  p :     0.061197
      px      :     0.029932
      py      :     0.016912


                      *****************************
                      * MAYER POPULATION ANALYSIS *
                      *****************************

  NA   - Mulliken gross atomic population
  ZA   - Total nuclear charge
  QA   - Mulliken gross atomic charge
  VA   - Mayer's total valence
  BVA  - Mayer's bonded valence
  FA   - Mayer's free valence

  ATOM       NA         ZA         QA         VA         BVA        FA
  0 C      6.3820     6.0000    -0.3820     3.8765     3.8765    -0.0000
  1 C      5.9327     6.0000     0.0673     3.7523     3.7523    -0.0000
  2 H      0.8679     1.0000     0.1321     0.9631     0.9631    -0.0000
  3 H      0.8689     1.0000     0.1311     0.9629     0.9629    -0.0000
  4 H      0.8690     1.0000     0.1310     0.9752     0.9752    -0.0000
  5 C      6.3994     6.0000    -0.3994     3.8682     3.8682    -0.0000
  6 C      5.9301     6.0000     0.0699     3.7346     3.7346    -0.0000
  7 H      0.8671     1.0000     0.1329     0.9742     0.9742    -0.0000
  8 H      0.8624     1.0000     0.1376     0.9607     0.9607    -0.0000
  9 H      0.8643     1.0000     0.1357     0.9606     0.9606    -0.0000
 10 C      6.3525     6.0000    -0.3525     3.9951     3.9951    -0.0000
 11 C      6.3575     6.0000    -0.3575     3.9859     3.9859    -0.0000
 12 C      5.9130     6.0000     0.0870     3.9299     3.9299    -0.0000
 13 H      0.8618     1.0000     0.1382     0.9793     0.9793    -0.0000
 14 C      5.9198     6.0000     0.0802     3.9282     3.9282    -0.0000
 15 H      0.8631     1.0000     0.1369     0.9802     0.9802    -0.0000
 16 N      7.1162     7.0000    -0.1162     3.0907     3.0907    -0.0000
 17 N      7.1111     7.0000    -0.1111     3.0911     3.0911    -0.0000
 18 C      5.8715     6.0000     0.1285     3.7656     3.7656    -0.0000
 19 C      5.9392     6.0000     0.0608     3.3814     3.3814    -0.0000
 20 H      0.9043     1.0000     0.0957     0.9810     0.9810    -0.0000
 21 C      6.3193     6.0000    -0.3193     3.8967     3.8967    -0.0000
 22 H      0.8451     1.0000     0.1549     0.9630     0.9630    -0.0000
 23 H      0.8505     1.0000     0.1495     0.9622     0.9622    -0.0000
 24 H      0.8801     1.0000     0.1199     0.9755     0.9755    -0.0000
 25 C      6.3176     6.0000    -0.3176     3.9015     3.9015    -0.0000
 26 H      0.8806     1.0000     0.1194     0.9754     0.9754    -0.0000
 27 H      0.8532     1.0000     0.1468     0.9631     0.9631    -0.0000
 28 H      0.8460     1.0000     0.1540     0.9625     0.9625    -0.0000
 29 C      6.1521     6.0000    -0.1521     3.8824     3.8824    -0.0000
 30 C      6.2615     6.0000    -0.2615     3.9638     3.9638    -0.0000
 31 C      6.2343     6.0000    -0.2343     3.8992     3.8992    -0.0000
 32 H      0.8649     1.0000     0.1351     0.9806     0.9806    -0.0000
 33 C      5.8428     6.0000     0.1572     3.6526     3.6526    -0.0000
 34 H      0.8602     1.0000     0.1398     0.9711     0.9711    -0.0000
 35 C      6.2459     6.0000    -0.2459     4.0365     4.0365    -0.0000
 36 H      0.8631     1.0000     0.1369     0.9713     0.9713    -0.0000
 37 H      0.8597     1.0000     0.1403     0.9999     0.9999    -0.0000
 38 C      6.3906     6.0000    -0.3906     3.8589     3.8589    -0.0000
 39 H      0.8573     1.0000     0.1427     0.9612     0.9612    -0.0000
 40 H      0.8660     1.0000     0.1340     0.9740     0.9740    -0.0000
 41 H      0.8555     1.0000     0.1445     0.9610     0.9610    -0.0000

  Mayer bond orders larger than 0.100000
B(  0-C ,  1-C ) :   0.9181 B(  0-C ,  2-H ) :   0.9790 B(  0-C ,  3-H ) :   0.9765 
B(  0-C ,  4-H ) :   0.9840 B(  1-C ,  6-C ) :   1.4026 B(  1-C , 10-C ) :   1.4123 
B(  5-C ,  6-C ) :   0.9093 B(  5-C ,  7-H ) :   0.9851 B(  5-C ,  8-H ) :   0.9764 
B(  5-C ,  9-H ) :   0.9786 B(  6-C , 11-C ) :   1.4075 B( 10-C , 12-C ) :   1.4164 
B( 10-C , 13-H ) :   0.9369 B( 11-C , 14-C ) :   1.4086 B( 11-C , 15-H ) :   0.9419 
B( 12-C , 14-C ) :   1.2688 B( 12-C , 16-N ) :   1.1247 B( 14-C , 17-N ) :   1.1299 
B( 16-N , 18-C ) :   0.9896 B( 16-N , 21-C ) :   0.9514 B( 17-N , 18-C ) :   0.9901 
B( 17-N , 25-C ) :   0.9508 B( 18-C , 19-C ) :   0.8695 B( 18-C , 20-H ) :   0.9859 
B( 19-C , 29-C ) :   1.3115 B( 19-C , 35-C ) :   1.3560 B( 21-C , 22-H ) :   0.9683 
B( 21-C , 23-H ) :   0.9668 B( 21-C , 24-H ) :   0.9624 B( 25-C , 26-H ) :   0.9627 
B( 25-C , 27-H ) :   0.9689 B( 25-C , 28-H ) :   0.9687 B( 29-C , 31-C ) :   1.4228 
B( 29-C , 32-H ) :   0.9906 B( 30-C , 33-C ) :   1.3682 B( 30-C , 35-C ) :   1.4617 
B( 30-C , 36-H ) :   0.9776 B( 31-C , 33-C ) :   1.3504 B( 31-C , 34-H ) :   1.0002 
B( 33-C , 38-C ) :   0.9246 B( 35-C , 37-H ) :   0.9942 B( 38-C , 39-H ) :   0.9681 
B( 38-C , 40-H ) :   0.9922 B( 38-C , 41-H ) :   0.9687 

-------
TIMINGS
-------

Total SCF time: 0 days 0 hours 29 min 4 sec 

Total time                  ....    1744.120 sec
Sum of individual times     ....    1742.156 sec  ( 99.9%)

Fock matrix formation       ....    1735.230 sec  ( 99.5%)
  XC integration            ....      11.126 sec  (  0.6% of F)
    Basis function eval.    ....       2.224 sec  ( 20.0% of XC)
    Density eval.           ....       3.333 sec  ( 30.0% of XC)
    XC-Functional eval.     ....       0.611 sec  (  5.5% of XC)
    XC-Potential eval.      ....       4.638 sec  ( 41.7% of XC)
Diagonalization             ....       0.399 sec  (  0.0%)
Density matrix formation    ....       0.060 sec  (  0.0%)
Population analysis         ....       0.262 sec  (  0.0%)
Initial guess               ....       0.411 sec  (  0.0%)
Orbital Transformation      ....       0.000 sec  (  0.0%)
Orbital Orthonormalization  ....       0.367 sec  (  0.0%)
DIIS solution               ....       0.117 sec  (  0.0%)
SOSCF solution              ....       1.720 sec  (  0.1%)
Grid generation             ....       3.957 sec  (  0.2%)


-------------------------------------------------------------------------------
                          DFT DISPERSION CORRECTION                            
                                                                               
                              DFTD3 V3.1  Rev 1                                
                              USING zero damping                               
-------------------------------------------------------------------------------
The omegaB97X-D3 functional is recognized. Fit by Chai et al.
Active option DFTDOPT                   ...         3   

molecular C6(AA) [au] = 17350.394675 


            DFT-D V3
 parameters
 s6 scaling factor         :     1.0000 
 rs6 scaling factor        :     1.2810 
 s8 scaling factor         :     1.0000 
 rs8 scaling factor        :     1.0940 
 Damping factor alpha6     :    14.0000 
 Damping factor alpha8     :    16.0000 
 ad hoc parameters k1-k3   :    16.0000     1.3333    -4.0000 

 Edisp/kcal,au: -11.820783541791  -0.018837615637 
 E6   /kcal   :  -5.561356543 
 E8   /kcal   :  -6.259426998 
 % E8         :  52.952724971 

-------------------------   ----------------
Dispersion correction           -0.018837616
-------------------------   ----------------


-------------------------   --------------------
FINAL SINGLE POINT ENERGY      -808.743810012109
-------------------------   --------------------

                                *** OPTIMIZATION RUN DONE ***

                            ***************************************
                            *     ORCA property calculations      *
                            ***************************************

                                    ---------------------
                                    Active property flags
                                    ---------------------
   (+) Dipole Moment


------------------------------------------------------------------------------
                       ORCA ELECTRIC PROPERTIES CALCULATION
------------------------------------------------------------------------------

Dipole Moment Calculation                       ... on
Quadrupole Moment Calculation                   ... off
Polarizability Calculation                      ... off
GBWName                                         ... p-Me-DMBI-Me2.gbw
Electron density file                           ... p-Me-DMBI-Me2.scfp
The origin for moment calculation is the CENTER OF MASS  = (-1.010248, -4.893931 -0.300491)

-------------
DIPOLE MOMENT
-------------
                                X             Y             Z
Electronic contribution:     -0.09853      -4.27157       0.35958
Nuclear contribution   :      0.21774       3.60219      -0.93756
                        -----------------------------------------
Total Dipole Moment    :      0.11921      -0.66938      -0.57798
                        -----------------------------------------
Magnitude (a.u.)       :      0.89238
Magnitude (Debye)      :      2.26825



--------------------
Rotational spectrum 
--------------------
 
Rotational constants in cm-1:     0.032171     0.005425     0.005048 
Rotational constants in MHz :   964.468190   162.632201   151.325765 

 Dipole components along the rotational axes: 
x,y,z [a.u.] :     0.716434    -0.009014     0.531960 
x,y,z [Debye]:     1.821031    -0.022911     1.352136 

 
--------------------------------------------------------------------------
[[44666,1],2]: A high-performance Open MPI point-to-point messaging module
was unable to find any relevant network interfaces:

Module: OpenFabrics (openib)
  Host: compute-1-3

Another transport will be used instead, although this may result in
lower performance.

NOTE: You can disable this warning by setting the MCA parameter
btl_base_warn_component_unused to 0.
--------------------------------------------------------------------------
[compute-1-3.local:17822] 3 more processes have sent help message help-mpi-btl-base.txt / btl:no-nics
[compute-1-3.local:17822] Set MCA parameter "orte_base_help_aggregate" to 0 to see all help / error messages

Timings for individual modules:

Sum of individual times         ...    82107.933 sec (=1368.466 min)
GTO integral calculation        ...       47.181 sec (=   0.786 min)   0.1 %
SCF iterations                  ...    51898.767 sec (= 864.979 min)  63.2 %
SCF Gradient evaluation         ...    30150.733 sec (= 502.512 min)  36.7 %
Geometry relaxation             ...       11.251 sec (=   0.188 min)   0.0 %
                             ****ORCA TERMINATED NORMALLY****
TOTAL RUN TIME: 0 days 22 hours 48 minutes 41 seconds 226 msec
