Warning: no access to tty (Bad file descriptor).
Thus no job control in this shell.

                                 *****************
                                 * O   R   C   A *
                                 *****************

           --- An Ab Initio, DFT and Semiempirical electronic structure package ---

                  #######################################################
                  #                        -***-                        #
                  #          Department of theory and spectroscopy      #
                  #               Directorship: Frank Neese             #
                  #        Max Planck Institute fuer Kohlenforschung    #
                  #                Kaiser Wilhelm Platz 1               #
                  #                 D-45470 Muelheim/Ruhr               #
                  #                      Germany                        #
                  #                                                     #
                  #                  All rights reserved                #
                  #                        -***-                        #
                  #######################################################


                         Program Version 4.2.1 -  RELEASE  -


 With contributions from (in alphabetic order):
   Daniel Aravena         : Magnetic Suceptibility
   Michael Atanasov       : Ab Initio Ligand Field Theory (pilot matlab implementation)
   Alexander A. Auer      : GIAO ZORA, VPT2
   Ute Becker             : Parallelization
   Giovanni Bistoni       : ED, misc. LED, open-shell LED, HFLD
   Martin Brehm           : Molecular dynamics
   Dmytro Bykov           : SCF Hessian
   Vijay G. Chilkuri      : MRCI spin determinant printing, contributions to CSF-ICE
   Dipayan Datta          : RHF DLPNO-CCSD density
   Achintya Kumar Dutta   : EOM-CC, STEOM-CC
   Dmitry Ganyushin       : Spin-Orbit,Spin-Spin,Magnetic field MRCI
   Miquel Garcia          : C-PCM Hessian, Gaussian charge scheme
   Yang Guo               : DLPNO-NEVPT2, CIM, IAO-localization
   Andreas Hansen         : Spin unrestricted coupled pair/coupled cluster methods
   Benjamin Helmich-Paris : CASSCF linear response (MC-RPA)
   Lee Huntington         : MR-EOM, pCC
   Robert Izsak           : Overlap fitted RIJCOSX, COSX-SCS-MP3, EOM
   Christian Kollmar      : KDIIS, OOCD, Brueckner-CCSD(T), CCSD density
   Simone Kossmann        : Meta GGA functionals, TD-DFT gradient, OOMP2, MP2 Hessian
   Martin Krupicka        : AUTO-CI
   Lucas Lang             : DCDCAS
   Dagmar Lenk            : GEPOL surface, SMD
   Dimitrios Liakos       : Extrapolation schemes; Compound Job, initial MDCI parallelization
   Dimitrios Manganas     : Further ROCIS development; embedding schemes
   Dimitrios Pantazis     : SARC Basis sets
   Taras Petrenko         : DFT Hessian,TD-DFT gradient, ASA, ECA, R-Raman, ABS, FL, XAS/XES, NRVS
   Peter Pinski           : DLPNO-MP2, DLPNO-MP2 Gradient
   Christoph Reimann      : Effective Core Potentials
   Marius Retegan         : Local ZFS, SOC
   Christoph Riplinger    : Optimizer, TS searches, QM/MM, DLPNO-CCSD(T), (RO)-DLPNO pert. Triples
   Tobias Risthaus        : Range-separated hybrids, TD-DFT gradient, RPA, STAB
   Michael Roemelt        : Original ROCIS implementation
   Masaaki Saitow         : Open-shell DLPNO-CCSD energy and density
   Barbara Sandhoefer     : DKH picture change effects
   Avijit Sen             : IP-ROCIS
   Kantharuban Sivalingam : CASSCF convergence, NEVPT2, FIC-MRCI
   Bernardo de Souza      : ESD, SOC TD-DFT
   Georgi Stoychev        : AutoAux, RI-MP2 NMR
   Willem Van den Heuvel  : Paramagnetic NMR
   Boris Wezisla          : Elementary symmetry handling
   Frank Wennmohs         : Technical directorship


 We gratefully acknowledge several colleagues who have allowed us to
 interface, adapt or use parts of their codes:
   Stefan Grimme, W. Hujo, H. Kruse,             : VdW corrections, initial TS optimization,
                  C. Bannwarth                     DFT functionals, gCP, sTDA/sTD-DF
   Ed Valeev, F. Pavosevic, A. Kumar             : LibInt (2-el integral package), F12 methods
   Garnet Chan, S. Sharma, J. Yang, R. Olivares  : DMRG
   Ulf Ekstrom                                   : XCFun DFT Library
   Mihaly Kallay                                 : mrcc  (arbitrary order and MRCC methods)
   Andreas Klamt, Michael Diedenhofen            : otool_cosmo (COSMO solvation model)
   Jiri Pittner, Ondrej Demel                    : Mk-CCSD
   Frank Weinhold                                : gennbo (NPA and NBO analysis)
   Christopher J. Cramer and Donald G. Truhlar   : smd solvation model
   Lars Goerigk                                  : TD-DFT with DH, B97 family of functionals
   V. Asgeirsson, H. Jonsson                     : NEB implementation
   FAccTs GmbH                                   : IRC, NEB, NEB-TS, Multilevel, MM, QM/MM, CI optimization
   S Lehtola, MJT Oliveira, MAL Marques          : LibXC Library


 Your calculation uses the libint2 library for the computation of 2-el integrals
 For citations please refer to: http://libint.valeyev.net

 Your ORCA version has been built with support for libXC version: 4.2.3
 For citations please refer to: https://tddft.org/programs/libxc/

 This ORCA versions uses:
   CBLAS   interface :  Fast vector & matrix operations
   LAPACKE interface :  Fast linear algebra routines
   SCALAPACK package :  Parallel linear algebra routines



            !!!!!!!!!!!!!!!!!!!!!!!!!!!!!!!!!!!!!!!!!!!!!!!!!!!!!!!!
                                 INPUT ERROR
            UNRECOGNIZED OR DUPLICATED KEYWORD(S) IN SIMPLE INPUT LINE
                        DEF2-TZVP/J  
            !!!!!!!!!!!!!!!!!!!!!!!!!!!!!!!!!!!!!!!!!!!!!!!!!!!!!!!!
[file orca_main/maininp4.cpp, line 9978]: 

[file orca_main/maininp4.cpp, line 9978]: 

Warning: no access to tty (Bad file descriptor).
Thus no job control in this shell.

                                 *****************
                                 * O   R   C   A *
                                 *****************

           --- An Ab Initio, DFT and Semiempirical electronic structure package ---

                  #######################################################
                  #                        -***-                        #
                  #          Department of theory and spectroscopy      #
                  #               Directorship: Frank Neese             #
                  #        Max Planck Institute fuer Kohlenforschung    #
                  #                Kaiser Wilhelm Platz 1               #
                  #                 D-45470 Muelheim/Ruhr               #
                  #                      Germany                        #
                  #                                                     #
                  #                  All rights reserved                #
                  #                        -***-                        #
                  #######################################################


                         Program Version 4.2.1 -  RELEASE  -


 With contributions from (in alphabetic order):
   Daniel Aravena         : Magnetic Suceptibility
   Michael Atanasov       : Ab Initio Ligand Field Theory (pilot matlab implementation)
   Alexander A. Auer      : GIAO ZORA, VPT2
   Ute Becker             : Parallelization
   Giovanni Bistoni       : ED, misc. LED, open-shell LED, HFLD
   Martin Brehm           : Molecular dynamics
   Dmytro Bykov           : SCF Hessian
   Vijay G. Chilkuri      : MRCI spin determinant printing, contributions to CSF-ICE
   Dipayan Datta          : RHF DLPNO-CCSD density
   Achintya Kumar Dutta   : EOM-CC, STEOM-CC
   Dmitry Ganyushin       : Spin-Orbit,Spin-Spin,Magnetic field MRCI
   Miquel Garcia          : C-PCM Hessian, Gaussian charge scheme
   Yang Guo               : DLPNO-NEVPT2, CIM, IAO-localization
   Andreas Hansen         : Spin unrestricted coupled pair/coupled cluster methods
   Benjamin Helmich-Paris : CASSCF linear response (MC-RPA)
   Lee Huntington         : MR-EOM, pCC
   Robert Izsak           : Overlap fitted RIJCOSX, COSX-SCS-MP3, EOM
   Christian Kollmar      : KDIIS, OOCD, Brueckner-CCSD(T), CCSD density
   Simone Kossmann        : Meta GGA functionals, TD-DFT gradient, OOMP2, MP2 Hessian
   Martin Krupicka        : AUTO-CI
   Lucas Lang             : DCDCAS
   Dagmar Lenk            : GEPOL surface, SMD
   Dimitrios Liakos       : Extrapolation schemes; Compound Job, initial MDCI parallelization
   Dimitrios Manganas     : Further ROCIS development; embedding schemes
   Dimitrios Pantazis     : SARC Basis sets
   Taras Petrenko         : DFT Hessian,TD-DFT gradient, ASA, ECA, R-Raman, ABS, FL, XAS/XES, NRVS
   Peter Pinski           : DLPNO-MP2, DLPNO-MP2 Gradient
   Christoph Reimann      : Effective Core Potentials
   Marius Retegan         : Local ZFS, SOC
   Christoph Riplinger    : Optimizer, TS searches, QM/MM, DLPNO-CCSD(T), (RO)-DLPNO pert. Triples
   Tobias Risthaus        : Range-separated hybrids, TD-DFT gradient, RPA, STAB
   Michael Roemelt        : Original ROCIS implementation
   Masaaki Saitow         : Open-shell DLPNO-CCSD energy and density
   Barbara Sandhoefer     : DKH picture change effects
   Avijit Sen             : IP-ROCIS
   Kantharuban Sivalingam : CASSCF convergence, NEVPT2, FIC-MRCI
   Bernardo de Souza      : ESD, SOC TD-DFT
   Georgi Stoychev        : AutoAux, RI-MP2 NMR
   Willem Van den Heuvel  : Paramagnetic NMR
   Boris Wezisla          : Elementary symmetry handling
   Frank Wennmohs         : Technical directorship


 We gratefully acknowledge several colleagues who have allowed us to
 interface, adapt or use parts of their codes:
   Stefan Grimme, W. Hujo, H. Kruse,             : VdW corrections, initial TS optimization,
                  C. Bannwarth                     DFT functionals, gCP, sTDA/sTD-DF
   Ed Valeev, F. Pavosevic, A. Kumar             : LibInt (2-el integral package), F12 methods
   Garnet Chan, S. Sharma, J. Yang, R. Olivares  : DMRG
   Ulf Ekstrom                                   : XCFun DFT Library
   Mihaly Kallay                                 : mrcc  (arbitrary order and MRCC methods)
   Andreas Klamt, Michael Diedenhofen            : otool_cosmo (COSMO solvation model)
   Jiri Pittner, Ondrej Demel                    : Mk-CCSD
   Frank Weinhold                                : gennbo (NPA and NBO analysis)
   Christopher J. Cramer and Donald G. Truhlar   : smd solvation model
   Lars Goerigk                                  : TD-DFT with DH, B97 family of functionals
   V. Asgeirsson, H. Jonsson                     : NEB implementation
   FAccTs GmbH                                   : IRC, NEB, NEB-TS, Multilevel, MM, QM/MM, CI optimization
   S Lehtola, MJT Oliveira, MAL Marques          : LibXC Library


 Your calculation uses the libint2 library for the computation of 2-el integrals
 For citations please refer to: http://libint.valeyev.net

 Your ORCA version has been built with support for libXC version: 4.2.3
 For citations please refer to: https://tddft.org/programs/libxc/

 This ORCA versions uses:
   CBLAS   interface :  Fast vector & matrix operations
   LAPACKE interface :  Fast linear algebra routines
   SCALAPACK package :  Parallel linear algebra routines


Your calculation utilizes the atom-pairwise dispersion correction
with the zero-damping scheme (D30)
Cite in your paper:
S.Grimme, J.Antony, S.Ehrlich and H.Krieg, J.Chem.Phys., 132, (2010), 154104 
   

XCFun DFT library Copyright 2009-2010 Ulf Ekstrom and contributors.
See http://admol.org/xcfun for more information. This is free soft-
ware; see the source code for copying conditions. There is ABSOLUTELY
NO WARRANTY; not even for MERCHANTABILITY or FITNESS FOR A PARTICULAR
PURPOSE. For details see the documentation. Scientific users of this 
library should cite U. Ekstrom, L. Visscher, R. Bast, A. J. Thorvald-
sen and K. Ruud; J.Chem.Theor.Comp. 2010, DOI: 10.1021/ct100117s
XCFun Version 0.99 
----- Orbital basis set information -----
Your calculation utilizes the basis: def2-TZVP
   F. Weigend and R. Ahlrichs, Phys. Chem. Chem. Phys. 7, 3297 (2005).

----- AuxJ basis set information -----
Your calculation utilizes the auxiliary basis: def2/J
   F. Weigend, Phys. Chem. Chem. Phys. 8, 1057 (2006).

================================================================================
                                        WARNINGS
                       Please study these warnings very carefully!
================================================================================


WARNING: Geometry Optimization
  ===> : Switching off AutoStart
         For restart on a previous wavefunction, please use MOREAD

INFO   : the flag for use of LIBINT has been found!

================================================================================
                                       INPUT FILE
================================================================================
NAME = DBU.inp
|  1> # avogadro generated ORCA input file 
|  2> # Basic Mode
|  3> # 
|  4> ! wB97X-D3 OPT def2-TZVP def2/J CPCM
|  5> %cpcm
|  6>   epsilon 3
|  7> end
|  8> %pal
|  9>  nprocs 4
| 10> end 
| 11> 
| 12> * xyz 0 1
| 13>    N        4.48546        5.42491        0.23650
| 14>    C        3.05434        5.31058        0.34892
| 15>    N        2.49416        4.14263        0.34991
| 16>    C        5.32557        4.22810        0.29071
| 17>    C        4.57011        3.02667        0.86625
| 18>    C        3.23456        2.91404        0.16007
| 19>    H        3.40257        2.74833       -0.92673
| 20>    H        2.64644        2.06133        0.55948
| 21>    H        6.19773        4.39678        0.96023
| 22>    H        5.70355        4.01532       -0.73298
| 23>    H        5.17387        2.10010        0.75990
| 24>    H        4.37289        3.19919        1.94793
| 25>    C        5.14574        6.70581        0.03416
| 26>    C        5.02898        7.61099        1.26664
| 27>    H        4.77779        7.20949       -0.88561
| 28>    H        6.23522        6.52801       -0.11172
| 29>    C        3.67463        8.30451        1.43160
| 30>    H        5.76961        8.43183        1.14276
| 31>    H        5.30608        7.04367        2.18186
| 32>    C        2.45936        7.39797        1.64625
| 33>    H        3.49063        8.94411        0.53980
| 34>    H        3.75060        8.97865        2.31272
| 35>    C        2.14923        6.51137        0.44071
| 36>    H        1.59471        8.08552        1.77704
| 37>    H        2.55059        6.79062        2.57323
| 38>    H        2.18675        7.11035       -0.49456
| 39>    H        1.10467        6.14286        0.55303
| 40> *
| 41> 
| 42> 
| 43>                          ****END OF INPUT****
================================================================================

                       *****************************
                       * Geometry Optimization Run *
                       *****************************

Geometry optimization settings:
Update method            Update   .... BFGS
Choice of coordinates    CoordSys .... Z-matrix Internals
Initial Hessian          InHess   .... Almoef's Model

Convergence Tolerances:
Energy Change            TolE     ....  5.0000e-06 Eh
Max. Gradient            TolMAXG  ....  3.0000e-04 Eh/bohr
RMS Gradient             TolRMSG  ....  1.0000e-04 Eh/bohr
Max. Displacement        TolMAXD  ....  4.0000e-03 bohr
RMS Displacement         TolRMSD  ....  2.0000e-03 bohr
Strict Convergence                ....  False
------------------------------------------------------------------------------
                        ORCA OPTIMIZATION COORDINATE SETUP
------------------------------------------------------------------------------

The optimization will be done in new redundant internal coordinates
Making redundant internal coordinates   ...  (new redundants) done
Evaluating the initial hessian          ...  (Almloef) done
Evaluating the coordinates              ...  done
Calculating the B-matrix                .... done
Calculating the G-matrix                .... done
Diagonalizing the G-matrix              .... done
The first mode is                       ....   89
The number of degrees of freedom        ....   75

    -----------------------------------------------------------------
                    Redundant Internal Coordinates


    -----------------------------------------------------------------
         Definition                    Initial Value    Approx d2E/dq
    -----------------------------------------------------------------
      1. B(C   1,N   0)                  1.4401         0.465570   
      2. B(N   2,C   1)                  1.2953         0.792313   
      3. B(C   3,N   0)                  1.4632         0.427585   
      4. B(C   4,C   3)                  1.5315         0.371563   
      5. B(C   5,C   4)                  1.5149         0.394813   
      6. B(C   5,N   2)                  1.4470         0.453957   
      7. B(H   6,C   5)                  1.1121         0.331990   
      8. B(H   7,C   5)                  1.1102         0.334354   
      9. B(H   8,C   3)                  1.1124         0.331687   
     10. B(H   9,C   3)                  1.1118         0.332394   
     11. B(H  10,C   4)                  1.1110         0.333338   
     12. B(H  11,C   4)                  1.1130         0.330967   
     13. B(C  12,N   0)                  1.4552         0.440401   
     14. B(C  13,C  12)                  1.5336         0.368639   
     15. B(H  14,C  12)                  1.1113         0.332959   
     16. B(H  15,C  12)                  1.1135         0.330328   
     17. B(C  16,C  13)                  1.5305         0.372882   
     18. B(H  17,C  13)                  1.1125         0.331532   
     19. B(H  18,C  13)                  1.1119         0.332295   
     20. B(C  19,C  16)                  1.5313         0.371844   
     21. B(H  20,C  16)                  1.1128         0.331207   
     22. B(H  21,C  16)                  1.1120         0.332106   
     23. B(C  22,C  19)                  1.5283         0.375976   
     24. B(C  22,C   1)                  1.5065         0.407257   
     25. B(H  23,C  19)                  1.1124         0.331645   
     26. B(H  24,C  19)                  1.1120         0.332172   
     27. B(H  25,C  22)                  1.1113         0.333037   
     28. B(H  26,C  22)                  1.1133         0.330513   
     29. A(C   1,N   0,C   3)          120.1818         0.381445   
     30. A(C   1,N   0,C  12)          122.1172         0.383406   
     31. A(C   3,N   0,C  12)          117.6836         0.377789   
     32. A(N   0,C   1,N   2)          120.0935         0.425259   
     33. A(N   0,C   1,C  22)          122.5845         0.380638   
     34. A(N   2,C   1,C  22)          117.3107         0.417933   
     35. A(C   1,N   2,C   5)          122.9698         0.423342   
     36. A(N   0,C   3,H   9)          108.5189         0.325304   
     37. A(C   4,C   3,H   8)          106.2324         0.319700   
     38. A(C   4,C   3,H   9)          111.3211         0.319811   
     39. A(N   0,C   3,C   4)          111.8609         0.369196   
     40. A(N   0,C   3,H   8)          110.3912         0.325191   
     41. A(H   8,C   3,H   9)          108.4606         0.283562   
     42. A(C   3,C   4,C   5)          108.5432         0.366467   
     43. A(H  10,C   4,H  11)          108.5785         0.283591   
     44. A(C   5,C   4,H  11)          107.9595         0.322776   
     45. A(C   3,C   4,H  11)          109.3327         0.319586   
     46. A(C   5,C   4,H  10)          111.8669         0.323154   
     47. A(C   3,C   4,H  10)          110.5003         0.319959   
     48. A(N   2,C   5,H   6)          109.3922         0.328461   
     49. A(H   6,C   5,H   7)          108.4911         0.283861   
     50. A(N   2,C   5,C   4)          109.0758         0.376946   
     51. A(C   4,C   5,H   7)          110.8802         0.323315   
     52. A(N   2,C   5,H   7)          109.5052         0.328846   
     53. A(C   4,C   5,H   6)          109.4767         0.322939   
     54. A(H  14,C  12,H  15)          106.7317         0.283456   
     55. A(C  13,C  12,H  15)          105.9039         0.319074   
     56. A(N   0,C  12,H  15)          108.7608         0.326554   
     57. A(C  13,C  12,H  14)          111.8641         0.319487   
     58. A(N   0,C  12,H  14)          111.3329         0.326981   
     59. A(N   0,C  12,C  13)          111.9156         0.370571   
     60. A(C  12,C  13,H  17)          107.1764         0.319263   
     61. A(C  12,C  13,C  16)          114.9254         0.362412   
     62. A(H  17,C  13,H  18)          107.5907         0.283528   
     63. A(C  16,C  13,H  18)          111.2858         0.319981   
     64. A(C  12,C  13,H  18)          109.9606         0.319383   
     65. A(C  16,C  13,H  17)          105.4726         0.319860   
     66. A(H  20,C  16,H  21)          107.3291         0.283460   
     67. A(C  19,C  16,H  21)          107.5805         0.319805   
     68. A(C  13,C  16,H  21)          107.4364         0.319951   
     69. A(C  19,C  16,H  20)          108.7473         0.319663   
     70. A(C  13,C  16,H  20)          108.6868         0.319809   
     71. A(C  13,C  16,C  19)          116.6885         0.362948   
     72. A(H  23,C  19,H  24)          107.6585         0.283527   
     73. A(C  22,C  19,H  24)          110.9395         0.320393   
     74. A(C  16,C  19,H  24)          112.0305         0.319815   
     75. A(C  22,C  19,H  23)          107.0725         0.320310   
     76. A(C  16,C  19,H  23)          105.5124         0.319732   
     77. A(C  16,C  19,C  22)          113.1993         0.363461   
     78. A(C  19,C  22,H  26)          107.6280         0.320131   
     79. A(C   1,C  22,H  26)          107.8187         0.324350   
     80. A(C  19,C  22,H  25)          110.1423         0.320530   
     81. A(C   1,C  22,H  25)          110.9812         0.324756   
     82. A(H  25,C  22,H  26)          107.1572         0.283491   
     83. A(C   1,C  22,C  19)          112.8645         0.369171   
     84. D(C  22,C   1,N   0,C  12)     -7.9220         0.017081   
     85. D(C  22,C   1,N   0,C   3)    173.6326         0.017081   
     86. D(N   2,C   1,N   0,C   3)     -7.6292         0.017081   
     87. D(N   2,C   1,N   0,C  12)    170.8163         0.017081   
     88. D(C   5,N   2,C   1,C  22)    174.9288         0.048272   
     89. D(C   5,N   2,C   1,N   0)     -3.8747         0.048272   
     90. D(H   9,C   3,N   0,C   1)    106.6505         0.015588   
     91. D(H   9,C   3,N   0,C  12)    -71.8627         0.015588   
     92. D(C   4,C   3,N   0,C   1)    -16.5484         0.015588   
     93. D(H   8,C   3,N   0,C   1)   -134.6129         0.015588   
     94. D(H   8,C   3,N   0,C  12)     46.8739         0.015588   
     95. D(C   4,C   3,N   0,C  12)    164.9384         0.015588   
     96. D(C   5,C   4,C   3,N   0)     48.6749         0.011031   
     97. D(C   5,C   4,C   3,H   8)    169.1936         0.011031   
     98. D(H  11,C   4,C   3,H   9)    169.5378         0.011031   
     99. D(H  11,C   4,C   3,H   8)     51.6550         0.011031   
    100. D(H  10,C   4,C   3,H   9)     50.0890         0.011031   
    101. D(H  11,C   4,C   3,N   0)    -68.8637         0.011031   
    102. D(H  10,C   4,C   3,H   8)    -67.7938         0.011031   
    103. D(H  10,C   4,C   3,N   0)    171.6875         0.011031   
    104. D(C   5,C   4,C   3,H   9)    -72.9236         0.011031   
    105. D(H   6,C   5,C   4,H  11)    179.5884         0.012380   
    106. D(H   6,C   5,C   4,H  10)    -61.0070         0.012380   
    107. D(H   6,C   5,C   4,C   3)     61.1774         0.012380   
    108. D(N   2,C   5,C   4,H  11)     59.9222         0.012380   
    109. D(N   2,C   5,C   4,H  10)    179.3268         0.012380   
    110. D(N   2,C   5,C   4,C   3)    -58.4888         0.012380   
    111. D(H   7,C   5,N   2,C   1)    159.3908         0.016231   
    112. D(H   6,C   5,N   2,C   1)    -81.8330         0.016231   
    113. D(H   7,C   5,C   4,C   3)   -179.1553         0.012380   
    114. D(C   4,C   5,N   2,C   1)     37.8856         0.016231   
    115. D(H   7,C   5,C   4,H  11)    -60.7442         0.012380   
    116. D(H   7,C   5,C   4,H  10)     58.6604         0.012380   
    117. D(H  15,C  12,N   0,C   3)      3.4799         0.016539   
    118. D(H  14,C  12,N   0,C   3)    120.8066         0.016539   
    119. D(H  14,C  12,N   0,C   1)    -57.6759         0.016539   
    120. D(H  15,C  12,N   0,C   1)   -175.0026         0.016539   
    121. D(C  13,C  12,N   0,C   3)   -113.1737         0.016539   
    122. D(C  13,C  12,N   0,C   1)     68.3438         0.016539   
    123. D(H  18,C  13,C  12,H  15)    -69.8748         0.010868   
    124. D(H  18,C  13,C  12,N   0)     48.4910         0.010868   
    125. D(H  17,C  13,C  12,H  15)     46.7921         0.010868   
    126. D(H  17,C  13,C  12,H  14)    -69.1132         0.010868   
    127. D(H  17,C  13,C  12,N   0)    165.1579         0.010868   
    128. D(C  16,C  13,C  12,H  15)    163.6357         0.010868   
    129. D(H  18,C  13,C  12,H  14)    174.2199         0.010868   
    130. D(C  16,C  13,C  12,H  14)     47.7304         0.010868   
    131. D(C  16,C  13,C  12,N   0)    -77.9985         0.010868   
    132. D(H  21,C  16,C  13,H  18)     58.1809         0.011105   
    133. D(H  21,C  16,C  13,H  17)    -58.2029         0.011105   
    134. D(H  21,C  16,C  13,C  12)   -176.0123         0.011105   
    135. D(H  20,C  16,C  13,H  18)    174.0178         0.011105   
    136. D(H  20,C  16,C  13,H  17)     57.6339         0.011105   
    137. D(H  20,C  16,C  13,C  12)    -60.1755         0.011105   
    138. D(C  19,C  16,C  13,H  18)    -62.6316         0.011105   
    139. D(C  19,C  16,C  13,H  17)   -179.0154         0.011105   
    140. D(C  19,C  16,C  13,C  12)     63.1752         0.011105   
    141. D(H  23,C  19,C  16,H  20)    -58.5913         0.011047   
    142. D(H  23,C  19,C  16,C  13)    178.0892         0.011047   
    143. D(C  22,C  19,C  16,H  21)    174.1249         0.011047   
    144. D(C  22,C  19,C  16,H  20)     58.1806         0.011047   
    145. D(H  23,C  19,C  16,H  21)     57.3530         0.011047   
    146. D(C  22,C  19,C  16,C  13)    -65.1389         0.011047   
    147. D(H  24,C  19,C  16,H  21)    -59.5139         0.011047   
    148. D(H  24,C  19,C  16,H  20)   -175.4582         0.011047   
    149. D(H  24,C  19,C  16,C  13)     61.2223         0.011047   
    150. D(H  26,C  22,C  19,H  24)     70.5670         0.011279   
    151. D(H  26,C  22,C  19,H  23)    -46.6449         0.011279   
    152. D(H  25,C  22,C  19,H  24)   -172.9303         0.011279   
    153. D(H  25,C  22,C  19,H  23)     69.8578         0.011279   
    154. D(H  25,C  22,C  19,C  16)    -45.9919         0.011279   
    155. D(C   1,C  22,C  19,H  24)    -48.2791         0.011279   
    156. D(C   1,C  22,C  19,H  23)   -165.4910         0.011279   
    157. D(C   1,C  22,C  19,C  16)     78.6593         0.011279   
    158. D(H  26,C  22,C   1,N   2)      3.1092         0.012290   
    159. D(H  26,C  22,C   1,N   0)   -178.1194         0.012290   
    160. D(H  25,C  22,C   1,N   2)   -113.9637         0.012290   
    161. D(H  26,C  22,C  19,C  16)   -162.4946         0.011279   
    162. D(H  25,C  22,C   1,N   0)     64.8076         0.012290   
    163. D(C  19,C  22,C   1,N   2)    121.8443         0.012290   
    164. D(C  19,C  22,C   1,N   0)    -59.3843         0.012290   
    -----------------------------------------------------------------

Number of atoms                         .... 27
Number of degrees of freedom            .... 164

         *************************************************************
         *                GEOMETRY OPTIMIZATION CYCLE   1            *
         *************************************************************
---------------------------------
CARTESIAN COORDINATES (ANGSTROEM)
---------------------------------
  N      4.485460    5.424910    0.236500
  C      3.054340    5.310580    0.348920
  N      2.494160    4.142630    0.349910
  C      5.325570    4.228100    0.290710
  C      4.570110    3.026670    0.866250
  C      3.234560    2.914040    0.160070
  H      3.402570    2.748330   -0.926730
  H      2.646440    2.061330    0.559480
  H      6.197730    4.396780    0.960230
  H      5.703550    4.015320   -0.732980
  H      5.173870    2.100100    0.759900
  H      4.372890    3.199190    1.947930
  C      5.145740    6.705810    0.034160
  C      5.028980    7.610990    1.266640
  H      4.777790    7.209490   -0.885610
  H      6.235220    6.528010   -0.111720
  C      3.674630    8.304510    1.431600
  H      5.769610    8.431830    1.142760
  H      5.306080    7.043670    2.181860
  C      2.459360    7.397970    1.646250
  H      3.490630    8.944110    0.539800
  H      3.750600    8.978650    2.312720
  C      2.149230    6.511370    0.440710
  H      1.594710    8.085520    1.777040
  H      2.550590    6.790620    2.573230
  H      2.186750    7.110350   -0.494560
  H      1.104670    6.142860    0.553030

----------------------------
CARTESIAN COORDINATES (A.U.)
----------------------------
  NO LB      ZA    FRAG     MASS         X           Y           Z
   0 N     7.0000    0    14.007    8.476291   10.251594    0.446920
   1 C     6.0000    0    12.011    5.771866   10.035542    0.659363
   2 N     7.0000    0    14.007    4.713279    7.828436    0.661234
   3 C     6.0000    0    12.011   10.063869    7.989951    0.549362
   4 C     6.0000    0    12.011    8.636256    5.719577    1.636975
   5 C     6.0000    0    12.011    6.112433    5.506738    0.302488
   6 H     1.0000    0     1.008    6.429925    5.193591   -1.751266
   7 H     1.0000    0     1.008    5.001047    3.895349    1.057264
   8 H     1.0000    0     1.008   11.712012    8.308710    1.814572
   9 H     1.0000    0     1.008   10.778147    7.587855   -1.385131
  10 H     1.0000    0     1.008    9.777197    3.968614    1.436003
  11 H     1.0000    0     1.008    8.263565    6.045593    3.681054
  12 C     6.0000    0    12.011    9.724039   12.672144    0.064553
  13 C     6.0000    0    12.011    9.503395   14.382687    2.393603
  14 H     1.0000    0     1.008    9.028715   13.623962   -1.673560
  15 H     1.0000    0     1.008   11.782858   12.336151   -0.211120
  16 C     6.0000    0    12.011    6.944044   15.693250    2.705332
  17 H     1.0000    0     1.008   10.902983   15.933850    2.159503
  18 H     1.0000    0     1.008   10.027038   13.310607    4.123118
  19 C     6.0000    0    12.011    4.647517   13.980137    3.110962
  20 H     1.0000    0     1.008    6.596335   16.901918    1.020074
  21 H     1.0000    0     1.008    7.087607   16.967190    4.370407
  22 C     6.0000    0    12.011    4.061456   12.304706    0.832821
  23 H     1.0000    0     1.008    3.013565   15.279418    3.358119
  24 H     1.0000    0     1.008    4.819917   12.832412    4.862700
  25 H     1.0000    0     1.008    4.132359   13.436614   -0.934583
  26 H     1.0000    0     1.008    2.087524   11.608323    1.045075

--------------------------------
INTERNAL COORDINATES (ANGSTROEM)
--------------------------------
 N      0   0   0     0.000000000000     0.00000000     0.00000000
 C      1   0   0     1.440074324367     0.00000000     0.00000000
 N      2   1   0     1.295341582364   120.09345468     0.00000000
 C      1   2   3     1.463242191949   120.18176477   352.37082706
 C      4   1   2     1.531469930524   111.86091293   343.45156223
 C      3   2   1     1.446950162825   122.96983989   356.12532443
 H      6   3   2     1.112124725110   109.39216010   278.16704479
 H      6   3   2     1.110192697958   109.50521282   159.39079883
 H      4   1   2     1.112372706605   110.39123476   225.38707322
 H      4   1   2     1.111793787040   108.51890750   106.65049644
 H      5   4   1     1.111021343179   110.50026623   171.68750455
 H      5   4   1     1.112964734931   109.33272383   291.13627343
 C      1   2   3     1.455203066242   122.11720769   170.81627353
 C     13   1   2     1.533620122586   111.91558532    68.34384832
 H     13   1   2     1.111331452718   111.33291001   302.32411056
 H     13   1   2     1.113490226630   108.76080497   184.99737420
 C     14  13   1     1.530505052099   114.92539007   282.00148926
 H     14  13   1     1.112500497483   107.17641841   165.15786493
 H     14  13   1     1.111874111939   109.96064500    48.49096721
 C     17  14  13     1.531264368749   116.68846417    63.17516106
 H     17  14  13     1.112767450998   108.68684841   299.82451168
 H     17  14  13     1.112029062075   107.43640672   183.98766504
 C      2   1   3     1.506501291171   122.58447159   181.26174528
 H     20  17  14     1.112407591263   105.51237434   178.08916664
 H     20  17  14     1.111975204670   112.03052870    61.22225603
 H     23   2   1     1.111267188259   110.98123635    64.80763335
 H     23   2   1     1.113337772691   107.81874996   181.88058704

---------------------------
INTERNAL COORDINATES (A.U.)
---------------------------
 N      0   0   0     0.000000000000     0.00000000     0.00000000
 C      1   0   0     2.721346085545     0.00000000     0.00000000
 N      2   1   0     2.447840840547   120.09345468     0.00000000
 C      1   2   3     2.765127010382   120.18176477   352.37082706
 C      4   1   2     2.894058751026   111.86091293   343.45156223
 C      3   2   1     2.734339537172   122.96983989   356.12532443
 H      6   3   2     2.101611157220   109.39216010   278.16704479
 H      6   3   2     2.097960155020   109.50521282   159.39079883
 H      4   1   2     2.102079774332   110.39123476   225.38707322
 H      4   1   2     2.100985774900   108.51890750   106.65049644
 H      5   4   1     2.099526067550   110.50026623   171.68750455
 H      5   4   1     2.103198545732   109.33272383   291.13627343
 C      1   2   3     2.749935264440   122.11720769   170.81627353
 C     13   1   2     2.898122025158   111.91558532    68.34384832
 H     13   1   2     2.100112089650   111.33291001   302.32411056
 H     13   1   2     2.104191581128   108.76080497   184.99737420
 C     14  13   1     2.892235395050   114.92539007   282.00148926
 H     14  13   1     2.102321264094   107.17641841   165.15786493
 H     14  13   1     2.101137566961   109.96064500    48.49096721
 C     17  14  13     2.893670295567   116.68846417    63.17516106
 H     17  14  13     2.102825733127   108.68684841   299.82451168
 H     17  14  13     2.101430380284   107.43640672   183.98766504
 C      2   1   3     2.846874860712   122.58447159   181.26174528
 H     20  17  14     2.102145696782   105.51237434   178.08916664
 H     20  17  14     2.101328604537   112.03052870    61.22225603
 H     23   2   1     2.099990647421   110.98123635    64.80763335
 H     23   2   1     2.103903484935   107.81874996   181.88058704

---------------------
BASIS SET INFORMATION
---------------------
There are 3 groups of distinct atoms

 Group   1 Type N   : 11s6p2d1f contracted to 5s3p2d1f pattern {62111/411/11/1}
 Group   2 Type C   : 11s6p2d1f contracted to 5s3p2d1f pattern {62111/411/11/1}
 Group   3 Type H   : 5s1p contracted to 3s1p pattern {311/1}

Atom   0N    basis set group =>   1
Atom   1C    basis set group =>   2
Atom   2N    basis set group =>   1
Atom   3C    basis set group =>   2
Atom   4C    basis set group =>   2
Atom   5C    basis set group =>   2
Atom   6H    basis set group =>   3
Atom   7H    basis set group =>   3
Atom   8H    basis set group =>   3
Atom   9H    basis set group =>   3
Atom  10H    basis set group =>   3
Atom  11H    basis set group =>   3
Atom  12C    basis set group =>   2
Atom  13C    basis set group =>   2
Atom  14H    basis set group =>   3
Atom  15H    basis set group =>   3
Atom  16C    basis set group =>   2
Atom  17H    basis set group =>   3
Atom  18H    basis set group =>   3
Atom  19C    basis set group =>   2
Atom  20H    basis set group =>   3
Atom  21H    basis set group =>   3
Atom  22C    basis set group =>   2
Atom  23H    basis set group =>   3
Atom  24H    basis set group =>   3
Atom  25H    basis set group =>   3
Atom  26H    basis set group =>   3
---------------------------------
AUXILIARY/J BASIS SET INFORMATION
---------------------------------
There are 3 groups of distinct atoms

 Group   1 Type N   : 12s5p4d2f1g contracted to 6s4p3d1f1g pattern {711111/2111/211/2/1}
 Group   2 Type C   : 12s5p4d2f1g contracted to 6s4p3d1f1g pattern {711111/2111/211/2/1}
 Group   3 Type H   : 5s2p1d contracted to 3s1p1d pattern {311/2/1}

Atom   0N    basis set group =>   1
Atom   1C    basis set group =>   2
Atom   2N    basis set group =>   1
Atom   3C    basis set group =>   2
Atom   4C    basis set group =>   2
Atom   5C    basis set group =>   2
Atom   6H    basis set group =>   3
Atom   7H    basis set group =>   3
Atom   8H    basis set group =>   3
Atom   9H    basis set group =>   3
Atom  10H    basis set group =>   3
Atom  11H    basis set group =>   3
Atom  12C    basis set group =>   2
Atom  13C    basis set group =>   2
Atom  14H    basis set group =>   3
Atom  15H    basis set group =>   3
Atom  16C    basis set group =>   2
Atom  17H    basis set group =>   3
Atom  18H    basis set group =>   3
Atom  19C    basis set group =>   2
Atom  20H    basis set group =>   3
Atom  21H    basis set group =>   3
Atom  22C    basis set group =>   2
Atom  23H    basis set group =>   3
Atom  24H    basis set group =>   3
Atom  25H    basis set group =>   3
Atom  26H    basis set group =>   3
--------------------------------------------------------------------------
[[19802,1],2]: A high-performance Open MPI point-to-point messaging module
was unable to find any relevant network interfaces:

Module: OpenFabrics (openib)
  Host: compute-1-8

Another transport will be used instead, although this may result in
lower performance.

NOTE: You can disable this warning by setting the MCA parameter
btl_base_warn_component_unused to 0.
--------------------------------------------------------------------------


           ************************************************************
           *        Program running with 4 parallel MPI-processes     *
           *              working on a common directory               *
           ************************************************************
------------------------------------------------------------------------------
                           ORCA GTO INTEGRAL CALCULATION
------------------------------------------------------------------------------

                         BASIS SET STATISTICS AND STARTUP INFO

 # of primitive gaussian shells          ...  316
 # of primitive gaussian functions       ...  634
 # of contracted shells                  ...  185
 # of contracted basis functions         ...  437
 Highest angular momentum                ...    3
 Maximum contraction depth               ...    6
 Integral package used                   ... LIBINT
 Integral threshhold            Thresh   ...  2.500e-11
 Primitive cut-off              TCut     ...  2.500e-12


------------------------------ INTEGRAL EVALUATION ----------------------------


 * One electron integrals 
 Pre-screening matrix                    ... done
 Shell pair data                         ... done (   0.007 sec)

[compute-1-8.local:31788] 3 more processes have sent help message help-mpi-btl-base.txt / btl:no-nics
[compute-1-8.local:31788] Set MCA parameter "orte_base_help_aggregate" to 0 to see all help / error messages
--------------------------------------------------------------------------
[[19767,1],2]: A high-performance Open MPI point-to-point messaging module
was unable to find any relevant network interfaces:

Module: OpenFabrics (openib)
  Host: compute-1-8

Another transport will be used instead, although this may result in
lower performance.

NOTE: You can disable this warning by setting the MCA parameter
btl_base_warn_component_unused to 0.
--------------------------------------------------------------------------


           ************************************************************
           *        Program running with 4 parallel MPI-processes     *
           *              working on a common directory               *
           ************************************************************
-------------------------------------------------------------------------------
                                 ORCA SCF
-------------------------------------------------------------------------------

------------
SCF SETTINGS
------------
Hamiltonian:
 Density Functional     Method          .... DFT(GTOs)
 Exchange Functional    Exchange        .... WB97X-D3
 Correlation Functional Correlation     .... WB97X-D3
 Gradients option       PostSCFGGA      .... off
 Hybrid DFT is turned on
   Fraction HF Exchange ScalHFX         ....  0.195728
   Scaling of DF-GGA-X  ScalDFX         ....  0.000000
   Scaling of DF-GGA-C  ScalDFC         ....  1.000000
   Scaling of DF-LDA-C  ScalLDAC        ....  1.000000
   Perturbative correction              ....  0.000000
   Density functional embedding theory  .... OFF
 Long-range corrected/Screened/Range-Separated Hybrid DFT is turned on
   Amount of maximum screened exact exchange              ....  0.804272
   Range separation parameter mu (erf(mu*r12)/r12)        ....  0.250000


General Settings:
 Integral files         IntName         .... DBU
 Hartree-Fock type      HFTyp           .... RHF
 Total Charge           Charge          ....    0
 Multiplicity           Mult            ....    1
 Number of Electrons    NEL             ....   84
 Basis Dimension        Dim             ....  437
 Nuclear Repulsion      ENuc            ....    659.1178408864 Eh

Convergence Acceleration:
 DIIS                   CNVDIIS         .... on
   Start iteration      DIISMaxIt       ....    12
   Startup error        DIISStart       ....  0.200000
   # of expansion vecs  DIISMaxEq       ....     5
   Bias factor          DIISBfac        ....   1.050
   Max. coefficient     DIISMaxC        ....  10.000
 Newton-Raphson         CNVNR           .... off
 SOSCF                  CNVSOSCF        .... on
   Start iteration      SOSCFMaxIt      ....   150
   Startup grad/error   SOSCFStart      ....  0.003300
 Level Shifting         CNVShift        .... on
   Level shift para.    LevelShift      ....    0.2500
   Turn off err/grad.   ShiftErr        ....    0.0010
 Zerner damping         CNVZerner       .... off
 Static damping         CNVDamp         .... on
   Fraction old density DampFac         ....    0.7000
   Max. Damping (<1)    DampMax         ....    0.9800
   Min. Damping (>=0)   DampMin         ....    0.0000
   Turn off err/grad.   DampErr         ....    0.1000
 Fernandez-Rico         CNVRico         .... off

SCF Procedure:
 Maximum # iterations   MaxIter         ....   125
 SCF integral mode      SCFMode         .... Direct
   Integral package                     .... LIBINT
 Reset frequency        DirectResetFreq ....    20
 Integral Threshold     Thresh          ....  2.500e-11 Eh
 Primitive CutOff       TCut            ....  2.500e-12 Eh

Convergence Tolerance:
 Convergence Check Mode ConvCheckMode   .... Total+1el-Energy
 Convergence forced     ConvForced      .... 0
 Energy Change          TolE            ....  1.000e-08 Eh
 1-El. energy change                    ....  1.000e-05 Eh
 Orbital Gradient       TolG            ....  1.000e-05
 Orbital Rotation angle TolX            ....  1.000e-05
 DIIS Error             TolErr          ....  5.000e-07


Diagonalization of the overlap matrix:
Smallest eigenvalue                        ... 7.004e-05
Time for diagonalization                   ...    0.098 sec
Threshold for overlap eigenvalues          ... 1.000e-08
Number of eigenvalues below threshold      ... 0
Time for construction of square roots      ...    0.038 sec
Total time needed                          ...    0.136 sec

-------------------
DFT GRID GENERATION
-------------------

General Integration Accuracy     IntAcc      ...  4.340
Radial Grid Type                 RadialGrid  ... Gauss-Chebyshev
Angular Grid (max. acc.)         AngularGrid ... Lebedev-110
Angular grid pruning method      GridPruning ... 3 (G Style)
Weight generation scheme         WeightScheme... Becke
Basis function cutoff            BFCut       ...    1.0000e-11
Integration weight cutoff        WCut        ...    1.0000e-14
Grids for H and He will be reduced by one unit

# of grid points (after initial pruning)     ...  31012 (   0.0 sec)
# of grid points (after weights+screening)   ...  27852 (   0.1 sec)
nearest neighbour list constructed           ...    0.0 sec
Grid point re-assignment to atoms done       ...    0.0 sec
Grid point division into batches done        ...    0.0 sec
Reduced shell lists constructed in    0.2 sec

Total number of grid points                  ...    27852
Total number of batches                      ...      448
Average number of points per batch           ...       62
Average number of grid points per atom       ...     1032
Average number of shells per batch           ...   133.71 (72.27%)
Average number of basis functions per batch  ...   330.77 (75.69%)
Average number of large shells per batch     ...   103.53 (77.43%)
Average number of large basis fcns per batch ...   253.74 (76.71%)
Maximum spatial batch extension              ...  22.51, 16.33, 18.73 au
Average spatial batch extension              ...   0.59,  0.55,  0.57 au

Time for grid setup =    0.283 sec

------------------------------
INITIAL GUESS: MODEL POTENTIAL
------------------------------
Loading Hartree-Fock densities                     ... done
Calculating cut-offs                               ... done
Setting up the integral package                    ... done
Initializing the effective Hamiltonian             ... done
Starting the Coulomb interaction                   ... done (   0.3 sec)
Reading the grid                                   ... done
Mapping shells                                     ... done
Starting the XC term evaluation                    ... done (   0.5 sec)
  promolecular density results
     # of electrons  =     83.993899641
     EX              =    -63.828238903
     EC              =     -2.795492793
     EX+EC           =    -66.623731696
Transforming the Hamiltonian                       ... done (   0.0 sec)
Diagonalizing the Hamiltonian                      ... done (   0.1 sec)
Back transforming the eigenvectors                 ... done (   0.0 sec)
Now organizing SCF variables                       ... done
                      ------------------
                      INITIAL GUESS DONE (   1.3 sec)
                      ------------------

--------------------
CPCM SOLVATION MODEL
--------------------
CPCM parameters:
  Epsilon                                         ...       3.0000
  Refrac                                          ...       1.3300
  Rsolv                                           ...       1.3000
  Surface type                                    ...    GEPOL SES
  Epsilon function type                           ...         CPCM
Radii:
 Radius for N  used is    3.4582 Bohr (=   1.8300 Ang.)
 Radius for C  used is    3.7795 Bohr (=   2.0000 Ang.)
 Radius for H  used is    2.4566 Bohr (=   1.3000 Ang.)
Calculating surface                               ...        done! (  0.1s)
GEPOL surface points                              ...          822
GEPOL Volume                                      ...    1351.8676
GEPOL Surface-area                                ...     710.5836
Calculating surface distance matrix               ...        done! (  0.0s)
Performing Cholesky decomposition & store         ...        done! (  0.0s)
Overall time for CPCM initialization              ...                 0.1s
--------------
SCF ITERATIONS
--------------
ITER       Energy         Delta-E        Max-DP      RMS-DP      [F,P]     Damp
               ***  Starting incremental Fock matrix formation  ***
[compute-1-8.local:31809] 3 more processes have sent help message help-mpi-btl-base.txt / btl:no-nics
[compute-1-8.local:31809] Set MCA parameter "orte_base_help_aggregate" to 0 to see all help / error messages
  0   -461.8195078940   0.000000000000 0.04123016  0.00072387  0.2373106 0.7000
  1   -461.9432253203  -0.123717426367 0.03539637  0.00063119  0.1275361 0.7000
                               ***Turning on DIIS***
  2   -462.0058197009  -0.062594380507 0.06625694  0.00133427  0.0560074 0.0000
  3   -462.1066358907  -0.100816189825 0.02210831  0.00037774  0.0553420 0.0000
  4   -462.1228153432  -0.016179452507 0.00601875  0.00010490  0.0060843 0.0000
  5   -462.1232430134  -0.000427670181 0.00243794  0.00004644  0.0048955 0.0000
                      *** Initiating the SOSCF procedure ***
                           *** Shutting down DIIS ***
                      *** Re-Reading the Fockian *** 
                      *** Removing any level shift *** 
ITER      Energy       Delta-E        Grad      Rot      Max-DP    RMS-DP
  6   -462.12332420  -0.0000811902  0.001098  0.001098  0.001657  0.000028
               *** Restarting incremental Fock matrix formation ***
  7   -462.12334081  -0.0000166091  0.000513  0.001323  0.000997  0.000020
  8   -462.12334622  -0.0000054065  0.000336  0.001744  0.000849  0.000017
  9   -462.12334714  -0.0000009182  0.000177  0.000326  0.000305  0.000005
 10   -462.12334768  -0.0000005462  0.000025  0.000046  0.000093  0.000002
 11   -462.12334770  -0.0000000201  0.000011  0.000025  0.000027  0.000000
                  ***Gradient check signals convergence***
              ***Rediagonalizing the Fockian in SOSCF/NRSCF***

               *****************************************************
               *                     SUCCESS                       *
               *           SCF CONVERGED AFTER  12 CYCLES          *
               *****************************************************

Setting up the final grid:

General Integration Accuracy     IntAcc      ...  4.670
Radial Grid Type                 RadialGrid  ... Gauss-Chebyshev
Angular Grid (max. acc.)         AngularGrid ... Lebedev-302
Angular grid pruning method      GridPruning ... 3 (G Style)
Weight generation scheme         WeightScheme... Becke
Basis function cutoff            BFCut       ...    1.0000e-11
Integration weight cutoff        WCut        ...    1.0000e-14
Grids for H and He will be reduced by one unit

# of grid points (after initial pruning)     ... 122636 (   0.0 sec)
# of grid points (after weights+screening)   ... 107874 (   0.3 sec)
nearest neighbour list constructed           ...    0.0 sec
Grid point re-assignment to atoms done       ...    0.0 sec
Grid point division into batches done        ...    0.5 sec
Reduced shell lists constructed in    1.0 sec

Total number of grid points                  ...   107874
Total number of batches                      ...     1699
Average number of points per batch           ...       63
Average number of grid points per atom       ...     3995
Average number of shells per batch           ...   125.54 (67.86%)
Average number of basis functions per batch  ...   308.93 (70.69%)
Average number of large shells per batch     ...    95.53 (76.09%)
Average number of large basis fcns per batch ...   232.69 (75.32%)
Maximum spatial batch extension              ...  20.17, 16.58, 16.15 au
Average spatial batch extension              ...   0.38,  0.38,  0.37 au

Final grid set up in    1.4 sec
Final integration                            ... done (   2.0 sec)
Change in XC energy                          ...     0.001763791
Integrated number of electrons               ...    84.000220488
Previous integrated no of electrons          ...    84.002976074

----------------
TOTAL SCF ENERGY
----------------

Total Energy       :         -462.12158392 Eh          -12574.96760 eV

Components:
Nuclear Repulsion  :          659.11784089 Eh           17935.50827 eV
Electronic Energy  :        -1121.23942481 Eh          -30510.47587 eV
One Electron Energy:        -1931.63376307 Eh          -52562.42692 eV
Two Electron Energy:          810.39433826 Eh           22051.95104 eV
CPCM Dielectric    :           -0.00779351 Eh              -0.21207 eV

Virial components:
Potential Energy   :         -921.45705394 Eh          -25074.12118 eV
Kinetic Energy     :          459.33547002 Eh           12499.15358 eV
Virial Ratio       :            2.00606553


DFT components:
N(Alpha)           :       42.000110244062 electrons
N(Beta)            :       42.000110244062 electrons
N(Total)           :       84.000220488125 electrons
E(XC)              :      -46.793828019031 Eh       
DFET-embed. en.    :        0.000000000000 Eh       
CPCM Solvation Model Properties:
Surface-charge          :           -0.03615208
Charge-correction       :           -0.00038579 Eh              -0.01050 eV
Free-energy (cav+disp)  :            0.00424999 Eh               0.11565 eV
Corrected G(solv)       :         -462.11771972 Eh          -12574.86245 eV

---------------
SCF CONVERGENCE
---------------

  Last Energy change         ...   -1.0445e-08  Tolerance :   1.0000e-08
  Last MAX-Density change    ...    8.7642e-06  Tolerance :   1.0000e-07
  Last RMS-Density change    ...    1.7330e-07  Tolerance :   5.0000e-09
  Last Orbital Gradient      ...    2.4915e-06  Tolerance :   1.0000e-05
  Last Orbital Rotation      ...    1.7455e-05  Tolerance :   1.0000e-05

             **** THE GBW FILE WAS UPDATED (DBU.gbw) ****
             **** DENSITY FILE WAS UPDATED (DBU.scfp) ****
             **** ENERGY FILE WAS UPDATED (DBU.en.tmp) ****
             **** THE GBW FILE WAS UPDATED (DBU.gbw) ****
             **** DENSITY FILE WAS UPDATED (DBU.scfp) ****
----------------
ORBITAL ENERGIES
----------------

  NO   OCC          E(Eh)            E(eV) 
   0   2.0000     -14.431330      -392.6965 
   1   2.0000     -14.372780      -391.1032 
   2   2.0000     -10.343492      -281.4607 
   3   2.0000     -10.305737      -280.4334 
   4   2.0000     -10.305084      -280.4156 
   5   2.0000     -10.285634      -279.8863 
   6   2.0000     -10.275955      -279.6229 
   7   2.0000     -10.270500      -279.4745 
   8   2.0000     -10.269571      -279.4492 
   9   2.0000     -10.268984      -279.4333 
  10   2.0000     -10.268443      -279.4185 
  11   2.0000      -1.070396       -29.1270 
  12   2.0000      -0.986555       -26.8455 
  13   2.0000      -0.928166       -25.2567 
  14   2.0000      -0.888396       -24.1745 
  15   2.0000      -0.867414       -23.6035 
  16   2.0000      -0.793976       -21.6052 
  17   2.0000      -0.772154       -21.0114 
  18   2.0000      -0.745224       -20.2786 
  19   2.0000      -0.695558       -18.9271 
  20   2.0000      -0.671381       -18.2692 
  21   2.0000      -0.613474       -16.6935 
  22   2.0000      -0.603506       -16.4222 
  23   2.0000      -0.586841       -15.9688 
  24   2.0000      -0.558076       -15.1860 
  25   2.0000      -0.541121       -14.7247 
  26   2.0000      -0.539954       -14.6929 
  27   2.0000      -0.530707       -14.4413 
  28   2.0000      -0.518803       -14.1173 
  29   2.0000      -0.501253       -13.6398 
  30   2.0000      -0.493252       -13.4221 
  31   2.0000      -0.476331       -12.9616 
  32   2.0000      -0.469854       -12.7854 
  33   2.0000      -0.453566       -12.3421 
  34   2.0000      -0.446495       -12.1497 
  35   2.0000      -0.420837       -11.4516 
  36   2.0000      -0.416750       -11.3403 
  37   2.0000      -0.413039       -11.2394 
  38   2.0000      -0.404030       -10.9942 
  39   2.0000      -0.381212       -10.3733 
  40   2.0000      -0.319765        -8.7012 
  41   2.0000      -0.290364        -7.9012 
  42   0.0000       0.097312         2.6480 
  43   0.0000       0.112483         3.0608 
  44   0.0000       0.130436         3.5493 
  45   0.0000       0.138158         3.7595 
  46   0.0000       0.143299         3.8994 
  47   0.0000       0.158244         4.3060 
  48   0.0000       0.163717         4.4550 
  49   0.0000       0.168866         4.5951 
  50   0.0000       0.179692         4.8897 
  51   0.0000       0.186712         5.0807 
  52   0.0000       0.190977         5.1967 
  53   0.0000       0.198291         5.3958 
  54   0.0000       0.200403         5.4532 
  55   0.0000       0.211201         5.7471 
  56   0.0000       0.213869         5.8197 
  57   0.0000       0.214780         5.8445 
  58   0.0000       0.227874         6.2008 
  59   0.0000       0.230816         6.2808 
  60   0.0000       0.234765         6.3883 
  61   0.0000       0.246276         6.7015 
  62   0.0000       0.261313         7.1107 
  63   0.0000       0.269388         7.3304 
  64   0.0000       0.279685         7.6106 
  65   0.0000       0.292154         7.9499 
  66   0.0000       0.305156         8.3037 
  67   0.0000       0.306980         8.3533 
  68   0.0000       0.310490         8.4489 
  69   0.0000       0.310979         8.4622 
  70   0.0000       0.321909         8.7596 
  71   0.0000       0.324445         8.8286 
  72   0.0000       0.342542         9.3210 
  73   0.0000       0.345451         9.4002 
  74   0.0000       0.354265         9.6401 
  75   0.0000       0.369627        10.0581 
  76   0.0000       0.378136        10.2896 
  77   0.0000       0.387272        10.5382 
  78   0.0000       0.397012        10.8032 
  79   0.0000       0.414842        11.2884 
  80   0.0000       0.426559        11.6073 
  81   0.0000       0.433757        11.8031 
  82   0.0000       0.440182        11.9780 
  83   0.0000       0.448484        12.2039 
  84   0.0000       0.457482        12.4487 
  85   0.0000       0.470228        12.7956 
  86   0.0000       0.477586        12.9958 
  87   0.0000       0.482575        13.1315 
  88   0.0000       0.491089        13.3632 
  89   0.0000       0.495647        13.4872 
  90   0.0000       0.497390        13.5347 
  91   0.0000       0.502109        13.6631 
  92   0.0000       0.507092        13.7987 
  93   0.0000       0.517641        14.0857 
  94   0.0000       0.518936        14.1210 
  95   0.0000       0.524382        14.2692 
  96   0.0000       0.527735        14.3604 
  97   0.0000       0.529181        14.3997 
  98   0.0000       0.532562        14.4917 
  99   0.0000       0.538585        14.6557 
 100   0.0000       0.542022        14.7492 
 101   0.0000       0.544678        14.8214 
 102   0.0000       0.548832        14.9345 
 103   0.0000       0.557767        15.1776 
 104   0.0000       0.561525        15.2799 
 105   0.0000       0.570247        15.5172 
 106   0.0000       0.579225        15.7615 
 107   0.0000       0.583926        15.8894 
 108   0.0000       0.587128        15.9766 
 109   0.0000       0.596879        16.2419 
 110   0.0000       0.610822        16.6213 
 111   0.0000       0.620367        16.8810 
 112   0.0000       0.629266        17.1232 
 113   0.0000       0.643708        17.5162 
 114   0.0000       0.655185        17.8285 
 115   0.0000       0.661384        17.9972 
 116   0.0000       0.695685        18.9305 
 117   0.0000       0.702225        19.1085 
 118   0.0000       0.710021        19.3206 
 119   0.0000       0.722321        19.6553 
 120   0.0000       0.750789        20.4300 
 121   0.0000       0.756203        20.5773 
 122   0.0000       0.789604        21.4862 
 123   0.0000       0.794817        21.6281 
 124   0.0000       0.803188        21.8559 
 125   0.0000       0.829960        22.5844 
 126   0.0000       0.830816        22.6077 
 127   0.0000       0.847811        23.0701 
 128   0.0000       0.859402        23.3855 
 129   0.0000       0.862646        23.4738 
 130   0.0000       0.874759        23.8034 
 131   0.0000       0.880887        23.9702 
 132   0.0000       0.912479        24.8298 
 133   0.0000       0.913965        24.8703 
 134   0.0000       0.932193        25.3663 
 135   0.0000       0.940206        25.5843 
 136   0.0000       0.954585        25.9756 
 137   0.0000       0.961928        26.1754 
 138   0.0000       0.968167        26.3452 
 139   0.0000       0.990252        26.9461 
 140   0.0000       1.003086        27.2954 
 141   0.0000       1.019111        27.7314 
 142   0.0000       1.025199        27.8971 
 143   0.0000       1.045254        28.4428 
 144   0.0000       1.052785        28.6477 
 145   0.0000       1.064444        28.9650 
 146   0.0000       1.087589        29.5948 
 147   0.0000       1.116814        30.3900 
 148   0.0000       1.132226        30.8094 
 149   0.0000       1.145381        31.1674 
 150   0.0000       1.161316        31.6010 
 151   0.0000       1.164232        31.6804 
 152   0.0000       1.174658        31.9641 
 153   0.0000       1.186060        32.2743 
 154   0.0000       1.207906        32.8688 
 155   0.0000       1.216676        33.1074 
 156   0.0000       1.225324        33.3428 
 157   0.0000       1.235100        33.6088 
 158   0.0000       1.252621        34.0855 
 159   0.0000       1.259461        34.2717 
 160   0.0000       1.278131        34.7797 
 161   0.0000       1.288864        35.0718 
 162   0.0000       1.303675        35.4748 
 163   0.0000       1.321194        35.9515 
 164   0.0000       1.331170        36.2230 
 165   0.0000       1.348504        36.6947 
 166   0.0000       1.355719        36.8910 
 167   0.0000       1.360983        37.0342 
 168   0.0000       1.367135        37.2016 
 169   0.0000       1.383641        37.6508 
 170   0.0000       1.403878        38.2015 
 171   0.0000       1.439273        39.1646 
 172   0.0000       1.444591        39.3093 
 173   0.0000       1.467096        39.9217 
 174   0.0000       1.494331        40.6628 
 175   0.0000       1.514049        41.1994 
 176   0.0000       1.539404        41.8893 
 177   0.0000       1.545685        42.0602 
 178   0.0000       1.574365        42.8406 
 179   0.0000       1.597340        43.4658 
 180   0.0000       1.618795        44.0496 
 181   0.0000       1.625875        44.2423 
 182   0.0000       1.630187        44.3597 
 183   0.0000       1.650480        44.9118 
 184   0.0000       1.657506        45.1030 
 185   0.0000       1.674005        45.5520 
 186   0.0000       1.676733        45.6262 
 187   0.0000       1.684684        45.8426 
 188   0.0000       1.699043        46.2333 
 189   0.0000       1.704932        46.3936 
 190   0.0000       1.711914        46.5835 
 191   0.0000       1.716446        46.7069 
 192   0.0000       1.722295        46.8660 
 193   0.0000       1.729816        47.0707 
 194   0.0000       1.738682        47.3119 
 195   0.0000       1.756453        47.7955 
 196   0.0000       1.759077        47.8669 
 197   0.0000       1.774354        48.2826 
 198   0.0000       1.785215        48.5782 
 199   0.0000       1.796198        48.8770 
 200   0.0000       1.809003        49.2255 
 201   0.0000       1.825012        49.6611 
 202   0.0000       1.838425        50.0261 
 203   0.0000       1.843705        50.1698 
 204   0.0000       1.849275        50.3213 
 205   0.0000       1.861810        50.6624 
 206   0.0000       1.874820        51.0164 
 207   0.0000       1.898011        51.6475 
 208   0.0000       1.912551        52.0431 
 209   0.0000       1.934762        52.6476 
 210   0.0000       1.944828        52.9215 
 211   0.0000       1.951077        53.0915 
 212   0.0000       1.984268        53.9947 
 213   0.0000       2.016710        54.8775 
 214   0.0000       2.026484        55.1434 
 215   0.0000       2.039049        55.4853 
 216   0.0000       2.050572        55.7989 
 217   0.0000       2.062682        56.1284 
 218   0.0000       2.064568        56.1797 
 219   0.0000       2.083912        56.7061 
 220   0.0000       2.112077        57.4725 
 221   0.0000       2.132046        58.0159 
 222   0.0000       2.142060        58.2884 
 223   0.0000       2.164118        58.8886 
 224   0.0000       2.173935        59.1558 
 225   0.0000       2.202037        59.9205 
 226   0.0000       2.223888        60.5151 
 227   0.0000       2.234178        60.7951 
 228   0.0000       2.239514        60.9403 
 229   0.0000       2.265175        61.6385 
 230   0.0000       2.277811        61.9824 
 231   0.0000       2.288252        62.2665 
 232   0.0000       2.299753        62.5795 
 233   0.0000       2.323761        63.2328 
 234   0.0000       2.347061        63.8668 
 235   0.0000       2.353963        64.0546 
 236   0.0000       2.378875        64.7325 
 237   0.0000       2.387093        64.9561 
 238   0.0000       2.416126        65.7461 
 239   0.0000       2.426392        66.0255 
 240   0.0000       2.439272        66.3760 
 241   0.0000       2.478834        67.4525 
 242   0.0000       2.483106        67.5687 
 243   0.0000       2.499006        68.0014 
 244   0.0000       2.500345        68.0379 
 245   0.0000       2.517524        68.5053 
 246   0.0000       2.528890        68.8146 
 247   0.0000       2.542089        69.1738 
 248   0.0000       2.555084        69.5274 
 249   0.0000       2.565158        69.8015 
 250   0.0000       2.578129        70.1545 
 251   0.0000       2.586974        70.3951 
 252   0.0000       2.590680        70.4960 
 253   0.0000       2.596017        70.6412 
 254   0.0000       2.611368        71.0589 
 255   0.0000       2.618086        71.2418 
 256   0.0000       2.641984        71.8920 
 257   0.0000       2.662610        72.4533 
 258   0.0000       2.668241        72.6065 
 259   0.0000       2.674858        72.7866 
 260   0.0000       2.681874        72.9775 
 261   0.0000       2.689278        73.1790 
 262   0.0000       2.699787        73.4649 
 263   0.0000       2.707466        73.6739 
 264   0.0000       2.721305        74.0505 
 265   0.0000       2.726614        74.1949 
 266   0.0000       2.735263        74.4303 
 267   0.0000       2.744698        74.6870 
 268   0.0000       2.747036        74.7507 
 269   0.0000       2.750086        74.8336 
 270   0.0000       2.754751        74.9606 
 271   0.0000       2.779203        75.6260 
 272   0.0000       2.800311        76.2003 
 273   0.0000       2.816211        76.6330 
 274   0.0000       2.834260        77.1241 
 275   0.0000       2.840198        77.2857 
 276   0.0000       2.844055        77.3907 
 277   0.0000       2.854126        77.6647 
 278   0.0000       2.863710        77.9255 
 279   0.0000       2.878142        78.3182 
 280   0.0000       2.892512        78.7092 
 281   0.0000       2.903725        79.0144 
 282   0.0000       2.922552        79.5267 
 283   0.0000       2.929559        79.7173 
 284   0.0000       2.946617        80.1815 
 285   0.0000       2.975528        80.9682 
 286   0.0000       2.989275        81.3423 
 287   0.0000       3.000838        81.6569 
 288   0.0000       3.024690        82.3060 
 289   0.0000       3.046723        82.9055 
 290   0.0000       3.083619        83.9095 
 291   0.0000       3.098100        84.3036 
 292   0.0000       3.109546        84.6150 
 293   0.0000       3.126255        85.0697 
 294   0.0000       3.141649        85.4886 
 295   0.0000       3.152692        85.7891 
 296   0.0000       3.169847        86.2559 
 297   0.0000       3.175871        86.4198 
 298   0.0000       3.193341        86.8952 
 299   0.0000       3.202876        87.1547 
 300   0.0000       3.218591        87.5823 
 301   0.0000       3.224422        87.7410 
 302   0.0000       3.234564        88.0170 
 303   0.0000       3.243874        88.2703 
 304   0.0000       3.269111        88.9570 
 305   0.0000       3.288915        89.4959 
 306   0.0000       3.292010        89.5802 
 307   0.0000       3.297969        89.7423 
 308   0.0000       3.318293        90.2953 
 309   0.0000       3.324954        90.4766 
 310   0.0000       3.337632        90.8216 
 311   0.0000       3.354237        91.2734 
 312   0.0000       3.361939        91.4830 
 313   0.0000       3.374146        91.8152 
 314   0.0000       3.376784        91.8870 
 315   0.0000       3.390403        92.2576 
 316   0.0000       3.413472        92.8853 
 317   0.0000       3.425378        93.2093 
 318   0.0000       3.434344        93.4532 
 319   0.0000       3.437558        93.5407 
 320   0.0000       3.449637        93.8694 
 321   0.0000       3.458808        94.1190 
 322   0.0000       3.473558        94.5203 
 323   0.0000       3.485494        94.8451 
 324   0.0000       3.492828        95.0447 
 325   0.0000       3.495511        95.1177 
 326   0.0000       3.500874        95.2636 
 327   0.0000       3.520756        95.8047 
 328   0.0000       3.532670        96.1288 
 329   0.0000       3.555232        96.7428 
 330   0.0000       3.559532        96.8598 
 331   0.0000       3.566786        97.0572 
 332   0.0000       3.583608        97.5149 
 333   0.0000       3.596291        97.8601 
 334   0.0000       3.607562        98.1668 
 335   0.0000       3.617464        98.4362 
 336   0.0000       3.628414        98.7342 
 337   0.0000       3.640808        99.0714 
 338   0.0000       3.653644        99.4207 
 339   0.0000       3.669342        99.8479 
 340   0.0000       3.670700        99.8848 
 341   0.0000       3.706215       100.8512 
 342   0.0000       3.706943       100.8710 
 343   0.0000       3.713905       101.0605 
 344   0.0000       3.735076       101.6366 
 345   0.0000       3.761816       102.3642 
 346   0.0000       3.772064       102.6431 
 347   0.0000       3.795249       103.2740 
 348   0.0000       3.808211       103.6267 
 349   0.0000       3.844774       104.6216 
 350   0.0000       3.865789       105.1935 
 351   0.0000       3.880351       105.5897 
 352   0.0000       3.905820       106.2828 
 353   0.0000       3.918801       106.6360 
 354   0.0000       3.939117       107.1888 
 355   0.0000       3.950693       107.5038 
 356   0.0000       3.955245       107.6277 
 357   0.0000       3.977711       108.2390 
 358   0.0000       3.986491       108.4779 
 359   0.0000       4.010993       109.1447 
 360   0.0000       4.043715       110.0351 
 361   0.0000       4.051043       110.2345 
 362   0.0000       4.070608       110.7669 
 363   0.0000       4.081699       111.0687 
 364   0.0000       4.102670       111.6393 
 365   0.0000       4.118071       112.0584 
 366   0.0000       4.130499       112.3966 
 367   0.0000       4.148500       112.8864 
 368   0.0000       4.172588       113.5419 
 369   0.0000       4.193643       114.1148 
 370   0.0000       4.208434       114.5173 
 371   0.0000       4.228232       115.0560 
 372   0.0000       4.237165       115.2991 
 373   0.0000       4.249143       115.6251 
 374   0.0000       4.269161       116.1698 
 375   0.0000       4.319170       117.5306 
 376   0.0000       4.322203       117.6131 
 377   0.0000       4.349966       118.3686 
 378   0.0000       4.372243       118.9748 
 379   0.0000       4.404372       119.8491 
 380   0.0000       4.410048       120.0035 
 381   0.0000       4.443655       120.9180 
 382   0.0000       4.455040       121.2278 
 383   0.0000       4.494343       122.2973 
 384   0.0000       4.514764       122.8530 
 385   0.0000       4.548509       123.7712 
 386   0.0000       4.570876       124.3798 
 387   0.0000       4.578448       124.5859 
 388   0.0000       4.614164       125.5578 
 389   0.0000       4.640050       126.2622 
 390   0.0000       4.662057       126.8610 
 391   0.0000       4.680251       127.3561 
 392   0.0000       4.707407       128.0951 
 393   0.0000       4.746934       129.1707 
 394   0.0000       4.798035       130.5612 
 395   0.0000       4.826646       131.3397 
 396   0.0000       4.852257       132.0366 
 397   0.0000       4.886132       132.9584 
 398   0.0000       4.919318       133.8614 
 399   0.0000       4.944391       134.5437 
 400   0.0000       4.950004       134.6964 
 401   0.0000       4.971216       135.2737 
 402   0.0000       5.010759       136.3497 
 403   0.0000       5.068284       137.9150 
 404   0.0000       5.080319       138.2425 
 405   0.0000       5.110399       139.0610 
 406   0.0000       5.154812       140.2696 
 407   0.0000       5.171867       140.7337 
 408   0.0000       5.195400       141.3740 
 409   0.0000       5.219716       142.0357 
 410   0.0000       5.270473       143.4169 
 411   0.0000       5.336409       145.2111 
 412   0.0000       5.381337       146.4336 
 413   0.0000       5.420994       147.5128 
 414   0.0000       5.446532       148.2077 
 415   0.0000       5.479405       149.1022 
 416   0.0000       5.508987       149.9072 
 417   0.0000       5.521975       150.2606 
 418   0.0000       5.587189       152.0352 
 419   0.0000       5.678501       154.5199 
 420   0.0000       5.784079       157.3928 
 421   0.0000       5.827788       158.5822 
 422   0.0000       5.876648       159.9117 
 423   0.0000       6.023565       163.9095 
 424   0.0000       6.135251       166.9487 
 425   0.0000       6.227821       169.4676 
 426   0.0000      22.524737       612.9292 
 427   0.0000      22.544045       613.4547 
 428   0.0000      22.551061       613.6456 
 429   0.0000      22.591569       614.7478 
 430   0.0000      22.598721       614.9425 
 431   0.0000      22.624608       615.6469 
 432   0.0000      22.642419       616.1316 
 433   0.0000      22.690545       617.4411 
 434   0.0000      23.220021       631.8489 
 435   0.0000      32.666443       888.8991 
 436   0.0000      33.072604       899.9513 

                    ********************************
                    * MULLIKEN POPULATION ANALYSIS *
                    ********************************

-----------------------
MULLIKEN ATOMIC CHARGES
-----------------------
   0 N :   -0.093329
   1 C :    0.043521
   2 N :   -0.376400
   3 C :   -0.170545
   4 C :   -0.220742
   5 C :   -0.083625
   6 H :    0.101714
   7 H :    0.119416
   8 H :    0.124685
   9 H :    0.114656
  10 H :    0.122705
  11 H :    0.113164
  12 C :   -0.209932
  13 C :   -0.194211
  14 H :    0.132448
  15 H :    0.147195
  16 C :   -0.237985
  17 H :    0.108501
  18 H :    0.114739
  19 C :   -0.202384
  20 H :    0.112624
  21 H :    0.116535
  22 C :   -0.181976
  23 H :    0.116117
  24 H :    0.118584
  25 H :    0.136096
  26 H :    0.128431
Sum of atomic charges:   -0.0000000

--------------------------------
MULLIKEN REDUCED ORBITAL CHARGES
--------------------------------
  0 N s       :     3.400452  s :     3.400452
      pz      :     1.616007  p :     3.609021
      px      :     0.993317
      py      :     0.999696
      dz2     :     0.005476  d :     0.079276
      dxz     :     0.010604
      dyz     :     0.010866
      dx2y2   :     0.026484
      dxy     :     0.025847
      f0      :     0.000698  f :     0.004580
      f+1     :     0.000648
      f-1     :     0.000672
      f+2     :     0.000353
      f-2     :     0.000416
      f+3     :     0.000682
      f-3     :     0.001111
  1 C s       :     3.122386  s :     3.122386
      pz      :     0.851803  p :     2.620113
      px      :     0.813768
      py      :     0.954541
      dz2     :     0.002535  d :     0.197860
      dxz     :     0.045733
      dyz     :     0.036540
      dx2y2   :     0.059091
      dxy     :     0.053961
      f0      :     0.002288  f :     0.016121
      f+1     :     0.001242
      f-1     :     0.001075
      f+2     :     0.002548
      f-2     :     0.001395
      f+3     :     0.002428
      f-3     :     0.005145
  2 N s       :     3.522883  s :     3.522883
      pz      :     1.268664  p :     3.789418
      px      :     1.531121
      py      :     0.989633
      dz2     :     0.006648  d :     0.060295
      dxz     :     0.006098
      dyz     :     0.013668
      dx2y2   :     0.013706
      dxy     :     0.020174
      f0      :     0.000564  f :     0.003805
      f+1     :     0.000217
      f-1     :     0.000438
      f+2     :     0.000347
      f-2     :     0.000501
      f+3     :     0.000722
      f-3     :     0.001015
  3 C s       :     3.236275  s :     3.236275
      pz      :     1.025308  p :     2.806327
      px      :     0.950583
      py      :     0.830436
      dz2     :     0.015845  d :     0.119952
      dxz     :     0.026582
      dyz     :     0.027013
      dx2y2   :     0.028454
      dxy     :     0.022058
      f0      :     0.001151  f :     0.007990
      f+1     :     0.000800
      f-1     :     0.000756
      f+2     :     0.000390
      f-2     :     0.001673
      f+3     :     0.001284
      f-3     :     0.001937
  4 C s       :     3.212689  s :     3.212689
      pz      :     0.998792  p :     2.910262
      px      :     0.946862
      py      :     0.964608
      dz2     :     0.028117  d :     0.092200
      dxz     :     0.013560
      dyz     :     0.007962
      dx2y2   :     0.014067
      dxy     :     0.028494
      f0      :     0.000674  f :     0.005591
      f+1     :     0.001119
      f-1     :     0.000520
      f+2     :     0.000467
      f-2     :     0.000679
      f+3     :     0.000987
      f-3     :     0.001146
  5 C s       :     3.198787  s :     3.198787
      pz      :     0.990666  p :     2.769547
      px      :     0.899539
      py      :     0.879341
      dz2     :     0.022434  d :     0.107618
      dxz     :     0.012956
      dyz     :     0.018264
      dx2y2   :     0.021296
      dxy     :     0.032668
      f0      :     0.001191  f :     0.007673
      f+1     :     0.001020
      f-1     :     0.000373
      f+2     :     0.000527
      f-2     :     0.001123
      f+3     :     0.001407
      f-3     :     0.002031
  6 H s       :     0.877929  s :     0.877929
      pz      :     0.012719  p :     0.020357
      px      :     0.003913
      py      :     0.003725
  7 H s       :     0.860431  s :     0.860431
      pz      :     0.004783  p :     0.020154
      px      :     0.006381
      py      :     0.008990
  8 H s       :     0.854971  s :     0.854971
      pz      :     0.007092  p :     0.020344
      px      :     0.009716
      py      :     0.003536
  9 H s       :     0.864889  s :     0.864889
      pz      :     0.011820  p :     0.020455
      px      :     0.004858
      py      :     0.003776
 10 H s       :     0.856522  s :     0.856522
      pz      :     0.003823  p :     0.020774
      px      :     0.006671
      py      :     0.010280
 11 H s       :     0.866399  s :     0.866399
      pz      :     0.012634  p :     0.020437
      px      :     0.004015
      py      :     0.003788
 12 C s       :     3.246300  s :     3.246300
      pz      :     0.978382  p :     2.838336
      px      :     1.031723
      py      :     0.828231
      dz2     :     0.022173  d :     0.117194
      dxz     :     0.015180
      dyz     :     0.036468
      dx2y2   :     0.023454
      dxy     :     0.019919
      f0      :     0.001431  f :     0.008102
      f+1     :     0.000607
      f-1     :     0.001403
      f+2     :     0.000655
      f-2     :     0.001631
      f+3     :     0.001167
      f-3     :     0.001207
 13 C s       :     3.194764  s :     3.194764
      pz      :     0.953148  p :     2.898789
      px      :     0.970301
      py      :     0.975340
      dz2     :     0.017526  d :     0.095342
      dxz     :     0.018810
      dyz     :     0.019817
      dx2y2   :     0.013566
      dxy     :     0.025623
      f0      :     0.000852  f :     0.005317
      f+1     :     0.000407
[...]
      dxz     :     0.014586
      dyz     :     0.025362
      dx2y2   :     0.016466
      dxy     :     0.019599
      f0      :     0.001044  f :     0.005228
      f+1     :     0.000342
      f-1     :     0.000979
      f+2     :     0.000341
      f-2     :     0.000985
      f+3     :     0.000782
      f-3     :     0.000755
 20 H s       :     0.867096  s :     0.867096
      pz      :     0.008510  p :     0.021131
      px      :     0.004158
      py      :     0.008463
 21 H s       :     0.857997  s :     0.857997
      pz      :     0.010024  p :     0.021292
      px      :     0.004182
      py      :     0.007086
 22 C s       :     3.184145  s :     3.184145
      pz      :     0.970577  p :     2.913874
      px      :     1.009786
      py      :     0.933511
      dz2     :     0.019048  d :     0.085520
      dxz     :     0.010853
      dyz     :     0.024799
      dx2y2   :     0.014487
      dxy     :     0.016333
      f0      :     0.000888  f :     0.005155
      f+1     :     0.000481
      f-1     :     0.001097
      f+2     :     0.000384
      f-2     :     0.000724
      f+3     :     0.000617
      f-3     :     0.000964
 23 H s       :     0.854858  s :     0.854858
      pz      :     0.004615  p :     0.021400
      px      :     0.010134
      py      :     0.006652
 24 H s       :     0.869532  s :     0.869532
      pz      :     0.009858  p :     0.021619
      px      :     0.004190
      py      :     0.007570
 25 H s       :     0.846753  s :     0.846753
      pz      :     0.010322  p :     0.021622
      px      :     0.004286
      py      :     0.007014
 26 H s       :     0.851878  s :     0.851878
      pz      :     0.004267  p :     0.021882
      px      :     0.012672
      py      :     0.004943


                     *******************************
                     * LOEWDIN POPULATION ANALYSIS *
                     *******************************

----------------------
LOEWDIN ATOMIC CHARGES
----------------------
   0 N :    0.192294
   1 C :   -0.330415
   2 N :    0.017796
   3 C :   -0.257556
   4 C :   -0.267043
   5 C :   -0.313757
   6 H :    0.130128
   7 H :    0.127940
   8 H :    0.137852
   9 H :    0.131812
  10 H :    0.141599
  11 H :    0.140977
  12 C :   -0.254120
  13 C :   -0.265175
  14 H :    0.138556
  15 H :    0.142922
  16 C :   -0.274499
  17 H :    0.139886
  18 H :    0.139856
  19 C :   -0.256125
  20 H :    0.138923
  21 H :    0.138631
  22 C :   -0.216394
  23 H :    0.140683
  24 H :    0.140705
  25 H :    0.145021
  26 H :    0.149504

-------------------------------
LOEWDIN REDUCED ORBITAL CHARGES
-------------------------------
  0 N s       :     2.868332  s :     2.868332
      pz      :     1.379402  p :     3.629893
      px      :     1.142019
      py      :     1.108472
      dz2     :     0.017961  d :     0.289737
      dxz     :     0.040521
      dyz     :     0.035170
      dx2y2   :     0.094436
      dxy     :     0.101650
      f0      :     0.002247  f :     0.019744
      f+1     :     0.001957
      f-1     :     0.001633
      f+2     :     0.002143
      f-2     :     0.002196
      f+3     :     0.002786
      f-3     :     0.006782
  1 C s       :     2.716873  s :     2.716873
      pz      :     0.790293  p :     2.736010
      px      :     0.935267
      py      :     1.010451
      dz2     :     0.047861  d :     0.777297
      dxz     :     0.154989
      dyz     :     0.112103
      dx2y2   :     0.224695
      dxy     :     0.237648
      f0      :     0.006303  f :     0.100235
      f+1     :     0.006988
      f-1     :     0.005969
      f+2     :     0.017386
      f-2     :     0.009922
      f+3     :     0.016121
      f-3     :     0.037545
  2 N s       :     3.051112  s :     3.051112
      pz      :     1.173151  p :     3.711698
      px      :     1.411535
      py      :     1.127012
      dz2     :     0.018320  d :     0.202488
      dxz     :     0.011256
      dyz     :     0.040746
      dx2y2   :     0.061012
      dxy     :     0.071155
      f0      :     0.001301  f :     0.016906
      f+1     :     0.000675
      f-1     :     0.002114
      f+2     :     0.000412
      f-2     :     0.002945
      f+3     :     0.003670
      f-3     :     0.005789
  3 C s       :     2.772074  s :     2.772074
      pz      :     1.045874  p :     2.955040
      px      :     0.967761
      py      :     0.941405
      dz2     :     0.069814  d :     0.475984
      dxz     :     0.105737
      dyz     :     0.094367
      dx2y2   :     0.096691
      dxy     :     0.109374
      f0      :     0.006087  f :     0.054458
      f+1     :     0.004478
      f-1     :     0.007999
      f+2     :     0.004490
      f-2     :     0.009951
      f+3     :     0.008968
      f-3     :     0.012485
  4 C s       :     2.773206  s :     2.773206
      pz      :     1.026745  p :     3.062592
      px      :     1.025566
      py      :     1.010281
      dz2     :     0.112963  d :     0.391500
      dxz     :     0.063544
      dyz     :     0.039331
      dx2y2   :     0.065761
      dxy     :     0.109901
      f0      :     0.003367  f :     0.039745
      f+1     :     0.006656
      f-1     :     0.004757
      f+2     :     0.006584
      f-2     :     0.005718
      f+3     :     0.006645
      f-3     :     0.006017
  5 C s       :     2.781306  s :     2.781306
      pz      :     1.039846  p :     2.994253
      px      :     1.006827
      py      :     0.947581
      dz2     :     0.089387  d :     0.483944
      dxz     :     0.068897
      dyz     :     0.082522
      dx2y2   :     0.101094
      dxy     :     0.142044
      f0      :     0.006287  f :     0.054254
      f+1     :     0.006485
      f-1     :     0.003664
      f+2     :     0.005328
      f-2     :     0.009093
      f+3     :     0.009124
      f-3     :     0.014272
  6 H s       :     0.812126  s :     0.812126
      pz      :     0.032263  p :     0.057747
      px      :     0.012610
      py      :     0.012873
  7 H s       :     0.814949  s :     0.814949
      pz      :     0.017358  p :     0.057111
      px      :     0.017466
      py      :     0.022287
  8 H s       :     0.803870  s :     0.803870
      pz      :     0.020779  p :     0.058278
      px      :     0.025284
      py      :     0.012215
  9 H s       :     0.810068  s :     0.810068
      pz      :     0.030956  p :     0.058120
      px      :     0.014181
      py      :     0.012982
 10 H s       :     0.799278  s :     0.799278
      pz      :     0.013076  p :     0.059123
      px      :     0.019475
      py      :     0.026572
 11 H s       :     0.800369  s :     0.800369
      pz      :     0.031806  p :     0.058655
      px      :     0.013404
      py      :     0.013445
 12 C s       :     2.772357  s :     2.772357
      pz      :     1.042532  p :     2.962032
      px      :     1.005906
      py      :     0.913594
      dz2     :     0.079471  d :     0.465474
      dxz     :     0.068181
      dyz     :     0.145952
      dx2y2   :     0.093391
      dxy     :     0.078479
      f0      :     0.009698  f :     0.054257
      f+1     :     0.004988
      f-1     :     0.007062
      f+2     :     0.005016
      f-2     :     0.010607
      f+3     :     0.008309
      f-3     :     0.008578
 13 C s       :     2.777178  s :     2.777178
      pz      :     1.019918  p :     3.055614
      px      :     1.017091
      py      :     1.018606
      dz2     :     0.079730  d :     0.394021
      dxz     :     0.067760
      dyz     :     0.090907
      dx2y2   :     0.051938
      dxy     :     0.103686
      f0      :     0.005258  f :     0.038361
      f+1     :     0.006238
      f-1     :     0.005301
      f+2     :     0.005429
      f-2     :     0.005446
      f+3     :     0.006413
      f-3     :     0.004277
 14 H s       :     0.802454  s :     0.802454
      pz      :     0.025605  p :     0.058990
      px      :     0.016713
      py      :     0.016672
 15 H s       :     0.798331  s :     0.798331
      pz      :     0.015017  p :     0.058747
      px      :     0.032967
      py      :     0.010764
 16 C s       :     2.773570  s :     2.773570
      pz      :     1.024571  p :     3.057857
      px      :     1.020299
      py      :     1.012987
      dz2     :     0.046277  d :     0.404659
      dxz     :     0.058043
      dyz     :     0.104398
      dx2y2   :     0.104534
      dxy     :     0.091407
      f0      :     0.004046  f :     0.038413
      f+1     :     0.004084
      f-1     :     0.004150
      f+2     :     0.004690
      f-2     :     0.005462
      f+3     :     0.010148
      f-3     :     0.005834
 17 H s       :     0.801489  s :     0.801489
      pz      :     0.012890  p :     0.058625
      px      :     0.022929
      py      :     0.022806
 18 H s       :     0.801741  s :     0.801741
      pz      :     0.024978  p :     0.058402
      px      :     0.013702
      py      :     0.019722
 19 C s       :     2.772896  s :     2.772896
      pz      :     1.013221  p :     3.049220
      px      :     1.018616
      py      :     1.017383
      dz2     :     0.079047  d :     0.395769
      dxz     :     0.056685
      dyz     :     0.104996
      dx2y2   :     0.062559
      dxy     :     0.092481
      f0      :     0.006616  f :     0.038240
      f+1     :     0.004768
      f-1     :     0.004895
      f+2     :     0.005202
      f-2     :     0.005820
      f+3     :     0.005380
      f-3     :     0.005560
 20 H s       :     0.803254  s :     0.803254
      pz      :     0.023950  p :     0.057823
      px      :     0.012912
      py      :     0.020962
 21 H s       :     0.803031  s :     0.803031
      pz      :     0.027611  p :     0.058338
      px      :     0.012608
      py      :     0.018119
 22 C s       :     2.767270  s :     2.767270
      pz      :     1.020700  p :     3.041509
      px      :     1.017289
      py      :     1.003520
      dz2     :     0.083336  d :     0.369943
      dxz     :     0.037039
      dyz     :     0.104649
      dx2y2   :     0.074621
      dxy     :     0.070299
      f0      :     0.005528  f :     0.037672
      f+1     :     0.005386
      f-1     :     0.005776
      f+2     :     0.004141
      f-2     :     0.005628
      f+3     :     0.004767
      f-3     :     0.006445
 23 H s       :     0.800683  s :     0.800683
      pz      :     0.013404  p :     0.058634
      px      :     0.025859
      py      :     0.019371
 24 H s       :     0.800796  s :     0.800796
      pz      :     0.024487  p :     0.058499
      px      :     0.013086
      py      :     0.020926
 25 H s       :     0.795645  s :     0.795645
      pz      :     0.026242  p :     0.059334
      px      :     0.013791
      py      :     0.019300
 26 H s       :     0.791162  s :     0.791162
      pz      :     0.012809  p :     0.059334
      px      :     0.032152
      py      :     0.014373


                      *****************************
                      * MAYER POPULATION ANALYSIS *
                      *****************************

  NA   - Mulliken gross atomic population
  ZA   - Total nuclear charge
  QA   - Mulliken gross atomic charge
  VA   - Mayer's total valence
  BVA  - Mayer's bonded valence
  FA   - Mayer's free valence

  ATOM       NA         ZA         QA         VA         BVA        FA
  0 N      7.0829     7.0000    -0.0829     3.0600     3.0600    -0.0000
  1 C      5.9491     6.0000     0.0509     4.3052     4.3052    -0.0000
  2 N      7.3869     7.0000    -0.3869     3.0250     3.0250    -0.0000
  3 C      6.1662     6.0000    -0.1662     3.9294     3.9294    -0.0000
  4 C      6.2180     6.0000    -0.2180     3.9183     3.9183    -0.0000
  5 C      6.0929     6.0000    -0.0929     3.9548     3.9548    -0.0000
  6 H      0.9029     1.0000     0.0971     0.9715     0.9715    -0.0000
  7 H      0.8845     1.0000     0.1155     0.9603     0.9603    -0.0000
  8 H      0.8664     1.0000     0.1336     0.9526     0.9526    -0.0000
  9 H      0.8868     1.0000     0.1132     0.9612     0.9612    -0.0000
 10 H      0.8776     1.0000     0.1224     0.9697     0.9697    -0.0000
 11 H      0.8880     1.0000     0.1120     0.9775     0.9775    -0.0000
 12 C      6.2214     6.0000    -0.2214     3.9252     3.9252    -0.0000
 13 C      6.1841     6.0000    -0.1841     3.8629     3.8629    -0.0000
 14 H      0.8606     1.0000     0.1394     0.9636     0.9636    -0.0000
 15 H      0.8516     1.0000     0.1484     0.9606     0.9606    -0.0000
 16 C      6.2491     6.0000    -0.2491     3.9548     3.9548    -0.0000
 17 H      0.8851     1.0000     0.1149     0.9716     0.9716    -0.0000
 18 H      0.8901     1.0000     0.1099     0.9766     0.9766    -0.0000
 19 C      6.1902     6.0000    -0.1902     3.8644     3.8644    -0.0000
 20 H      0.8882     1.0000     0.1118     0.9696     0.9696    -0.0000
 21 H      0.8793     1.0000     0.1207     0.9674     0.9674    -0.0000
 22 C      6.1887     6.0000    -0.1887     3.8016     3.8016    -0.0000
 23 H      0.8763     1.0000     0.1237     0.9637     0.9637    -0.0000
 24 H      0.8912     1.0000     0.1088     0.9771     0.9771    -0.0000
 25 H      0.8684     1.0000     0.1316     0.9689     0.9689    -0.0000
 26 H      0.8738     1.0000     0.1262     1.0130     1.0130    -0.0000

  Mayer bond orders larger than 0.100000
B(  0-N ,  1-C ) :   1.2332 B(  0-N ,  3-C ) :   0.9272 B(  0-N , 12-C ) :   0.8950 
B(  1-C ,  2-N ) :   1.9634 B(  1-C , 22-C ) :   0.9514 B(  2-N ,  5-C ) :   0.9914 
B(  3-C ,  4-C ) :   1.0004 B(  3-C ,  8-H ) :   0.9605 B(  3-C ,  9-H ) :   0.9599 
B(  4-C ,  5-C ) :   0.9730 B(  4-C , 10-H ) :   0.9679 B(  4-C , 11-H ) :   0.9716 
B(  5-C ,  6-H ) :   0.9688 B(  5-C ,  7-H ) :   0.9731 B( 12-C , 13-C ) :   0.9532 
B( 12-C , 14-H ) :   0.9725 B( 12-C , 15-H ) :   0.9753 B( 13-C , 16-C ) :   0.9904 
B( 13-C , 17-H ) :   0.9718 B( 13-C , 18-H ) :   0.9671 B( 16-C , 19-C ) :   0.9792 
B( 16-C , 20-H ) :   0.9788 B( 16-C , 21-H ) :   0.9746 B( 19-C , 22-C ) :   0.9220 
B( 19-C , 23-H ) :   0.9715 B( 19-C , 24-H ) :   0.9661 B( 22-C , 25-H ) :   0.9768 
B( 22-C , 26-H ) :   0.9750 

-------
TIMINGS
-------

Total SCF time: 0 days 0 hours 7 min 33 sec 

Total time                  ....     453.650 sec
Sum of individual times     ....     452.752 sec  ( 99.8%)

Fock matrix formation       ....     450.349 sec  ( 99.3%)
  XC integration            ....       5.253 sec  (  1.2% of F)
    Basis function eval.    ....       1.156 sec  ( 22.0% of XC)
    Density eval.           ....       1.377 sec  ( 26.2% of XC)
    XC-Functional eval.     ....       0.373 sec  (  7.1% of XC)
    XC-Potential eval.      ....       2.155 sec  ( 41.0% of XC)
Diagonalization             ....       0.100 sec  (  0.0%)
Density matrix formation    ....       0.050 sec  (  0.0%)
Population analysis         ....       0.068 sec  (  0.0%)
Initial guess               ....       0.092 sec  (  0.0%)
Orbital Transformation      ....       0.000 sec  (  0.0%)
Orbital Orthonormalization  ....       0.076 sec  (  0.0%)
DIIS solution               ....       0.026 sec  (  0.0%)
SOSCF solution              ....       0.413 sec  (  0.1%)
Grid generation             ....       1.653 sec  (  0.4%)


-------------------------------------------------------------------------------
                          DFT DISPERSION CORRECTION                            
                                                                               
                              DFTD3 V3.1  Rev 1                                
                              USING zero damping                               
-------------------------------------------------------------------------------
The omegaB97X-D3 functional is recognized. Fit by Chai et al.
Active option DFTDOPT                   ...         3   

molecular C6(AA) [au] = 5699.965217 


            DFT-D V3
 parameters
 s6 scaling factor         :     1.0000 
 rs6 scaling factor        :     1.2810 
 s8 scaling factor         :     1.0000 
 rs8 scaling factor        :     1.0940 
 Damping factor alpha6     :    14.0000 
 Damping factor alpha8     :    16.0000 
 ad hoc parameters k1-k3   :    16.0000     1.3333    -4.0000 

 Edisp/kcal,au: -6.678620159554  -0.010643057552 
 E6   /kcal   :  -2.907847983 
 E8   /kcal   :  -3.770772177 
 % E8         :  56.460347897 

-------------------------   ----------------
Dispersion correction           -0.010643058
-------------------------   ----------------


-------------------------   --------------------
FINAL SINGLE POINT ENERGY      -462.147658547292
-------------------------   --------------------

                                *** OPTIMIZATION RUN DONE ***

                            ***************************************
                            *     ORCA property calculations      *
                            ***************************************

                                    ---------------------
                                    Active property flags
                                    ---------------------
   (+) Dipole Moment


------------------------------------------------------------------------------
                       ORCA ELECTRIC PROPERTIES CALCULATION
------------------------------------------------------------------------------

Dipole Moment Calculation                       ... on
Quadrupole Moment Calculation                   ... off
Polarizability Calculation                      ... off
GBWName                                         ... DBU.gbw
Electron density file                           ... DBU.scfp
The origin for moment calculation is the CENTER OF MASS  = ( 7.163760, 10.595887  1.192403)

-------------
DIPOLE MOMENT
-------------
                                X             Y             Z
Electronic contribution:     -1.97544      -3.00259      -2.06565
Nuclear contribution   :      3.48636       3.77921       2.10093
                        -----------------------------------------
Total Dipole Moment    :      1.51092       0.77662       0.03528
                        -----------------------------------------
Magnitude (a.u.)       :      1.69919
Magnitude (Debye)      :      4.31901



--------------------
Rotational spectrum 
--------------------
 
Rotational constants in cm-1:     0.066826     0.030296     0.023657 
Rotational constants in MHz :  2003.397889   908.239367   709.221323 

 Dipole components along the rotational axes: 
x,y,z [a.u.] :     0.722774     1.537142    -0.045283 
x,y,z [Debye]:     1.837146     3.907105    -0.115100 

 
--------------------------------------------------------------------------
[[37359,1],0]: A high-performance Open MPI point-to-point messaging module
was unable to find any relevant network interfaces:

Module: OpenFabrics (openib)
  Host: compute-1-8

Another transport will be used instead, although this may result in
lower performance.

NOTE: You can disable this warning by setting the MCA parameter
btl_base_warn_component_unused to 0.
--------------------------------------------------------------------------
[compute-1-8.local:41113] 3 more processes have sent help message help-mpi-btl-base.txt / btl:no-nics
[compute-1-8.local:41113] Set MCA parameter "orte_base_help_aggregate" to 0 to see all help / error messages

Timings for individual modules:

Sum of individual times         ...    10634.858 sec (= 177.248 min)
GTO integral calculation        ...       52.870 sec (=   0.881 min)   0.5 %
SCF iterations                  ...     6333.490 sec (= 105.558 min)  59.6 %
SCF Gradient evaluation         ...     4244.607 sec (=  70.743 min)  39.9 %
Geometry relaxation             ...        3.892 sec (=   0.065 min)   0.0 %
                             ****ORCA TERMINATED NORMALLY****
TOTAL RUN TIME: 0 days 2 hours 57 minutes 23 seconds 76 msec
