Warning: no access to tty (Bad file descriptor).
Thus no job control in this shell.

                                 *****************
                                 * O   R   C   A *
                                 *****************

           --- An Ab Initio, DFT and Semiempirical electronic structure package ---

                  #######################################################
                  #                        -***-                        #
                  #          Department of theory and spectroscopy      #
                  #               Directorship: Frank Neese             #
                  #        Max Planck Institute fuer Kohlenforschung    #
                  #                Kaiser Wilhelm Platz 1               #
                  #                 D-45470 Muelheim/Ruhr               #
                  #                      Germany                        #
                  #                                                     #
                  #                  All rights reserved                #
                  #                        -***-                        #
                  #######################################################


                         Program Version 4.2.1 -  RELEASE  -


 With contributions from (in alphabetic order):
   Daniel Aravena         : Magnetic Suceptibility
   Michael Atanasov       : Ab Initio Ligand Field Theory (pilot matlab implementation)
   Alexander A. Auer      : GIAO ZORA, VPT2
   Ute Becker             : Parallelization
   Giovanni Bistoni       : ED, misc. LED, open-shell LED, HFLD
   Martin Brehm           : Molecular dynamics
   Dmytro Bykov           : SCF Hessian
   Vijay G. Chilkuri      : MRCI spin determinant printing, contributions to CSF-ICE
   Dipayan Datta          : RHF DLPNO-CCSD density
   Achintya Kumar Dutta   : EOM-CC, STEOM-CC
   Dmitry Ganyushin       : Spin-Orbit,Spin-Spin,Magnetic field MRCI
   Miquel Garcia          : C-PCM Hessian, Gaussian charge scheme
   Yang Guo               : DLPNO-NEVPT2, CIM, IAO-localization
   Andreas Hansen         : Spin unrestricted coupled pair/coupled cluster methods
   Benjamin Helmich-Paris : CASSCF linear response (MC-RPA)
   Lee Huntington         : MR-EOM, pCC
   Robert Izsak           : Overlap fitted RIJCOSX, COSX-SCS-MP3, EOM
   Christian Kollmar      : KDIIS, OOCD, Brueckner-CCSD(T), CCSD density
   Simone Kossmann        : Meta GGA functionals, TD-DFT gradient, OOMP2, MP2 Hessian
   Martin Krupicka        : AUTO-CI
   Lucas Lang             : DCDCAS
   Dagmar Lenk            : GEPOL surface, SMD
   Dimitrios Liakos       : Extrapolation schemes; Compound Job, initial MDCI parallelization
   Dimitrios Manganas     : Further ROCIS development; embedding schemes
   Dimitrios Pantazis     : SARC Basis sets
   Taras Petrenko         : DFT Hessian,TD-DFT gradient, ASA, ECA, R-Raman, ABS, FL, XAS/XES, NRVS
   Peter Pinski           : DLPNO-MP2, DLPNO-MP2 Gradient
   Christoph Reimann      : Effective Core Potentials
   Marius Retegan         : Local ZFS, SOC
   Christoph Riplinger    : Optimizer, TS searches, QM/MM, DLPNO-CCSD(T), (RO)-DLPNO pert. Triples
   Tobias Risthaus        : Range-separated hybrids, TD-DFT gradient, RPA, STAB
   Michael Roemelt        : Original ROCIS implementation
   Masaaki Saitow         : Open-shell DLPNO-CCSD energy and density
   Barbara Sandhoefer     : DKH picture change effects
   Avijit Sen             : IP-ROCIS
   Kantharuban Sivalingam : CASSCF convergence, NEVPT2, FIC-MRCI
   Bernardo de Souza      : ESD, SOC TD-DFT
   Georgi Stoychev        : AutoAux, RI-MP2 NMR
   Willem Van den Heuvel  : Paramagnetic NMR
   Boris Wezisla          : Elementary symmetry handling
   Frank Wennmohs         : Technical directorship


 We gratefully acknowledge several colleagues who have allowed us to
 interface, adapt or use parts of their codes:
   Stefan Grimme, W. Hujo, H. Kruse,             : VdW corrections, initial TS optimization,
                  C. Bannwarth                     DFT functionals, gCP, sTDA/sTD-DF
   Ed Valeev, F. Pavosevic, A. Kumar             : LibInt (2-el integral package), F12 methods
   Garnet Chan, S. Sharma, J. Yang, R. Olivares  : DMRG
   Ulf Ekstrom                                   : XCFun DFT Library
   Mihaly Kallay                                 : mrcc  (arbitrary order and MRCC methods)
   Andreas Klamt, Michael Diedenhofen            : otool_cosmo (COSMO solvation model)
   Jiri Pittner, Ondrej Demel                    : Mk-CCSD
   Frank Weinhold                                : gennbo (NPA and NBO analysis)
   Christopher J. Cramer and Donald G. Truhlar   : smd solvation model
   Lars Goerigk                                  : TD-DFT with DH, B97 family of functionals
   V. Asgeirsson, H. Jonsson                     : NEB implementation
   FAccTs GmbH                                   : IRC, NEB, NEB-TS, Multilevel, MM, QM/MM, CI optimization
   S Lehtola, MJT Oliveira, MAL Marques          : LibXC Library


 Your calculation uses the libint2 library for the computation of 2-el integrals
 For citations please refer to: http://libint.valeyev.net

 Your ORCA version has been built with support for libXC version: 4.2.3
 For citations please refer to: https://tddft.org/programs/libxc/

 This ORCA versions uses:
   CBLAS   interface :  Fast vector & matrix operations
   LAPACKE interface :  Fast linear algebra routines
   SCALAPACK package :  Parallel linear algebra routines


Your calculation utilizes the atom-pairwise dispersion correction
with the zero-damping scheme (D30)
Cite in your paper:
S.Grimme, J.Antony, S.Ehrlich and H.Krieg, J.Chem.Phys., 132, (2010), 154104 
   

XCFun DFT library Copyright 2009-2010 Ulf Ekstrom and contributors.
See http://admol.org/xcfun for more information. This is free soft-
ware; see the source code for copying conditions. There is ABSOLUTELY
NO WARRANTY; not even for MERCHANTABILITY or FITNESS FOR A PARTICULAR
PURPOSE. For details see the documentation. Scientific users of this 
library should cite U. Ekstrom, L. Visscher, R. Bast, A. J. Thorvald-
sen and K. Ruud; J.Chem.Theor.Comp. 2010, DOI: 10.1021/ct100117s
XCFun Version 0.99 
----- Orbital basis set information -----
Your calculation utilizes the basis: def2-TZVP
   F. Weigend and R. Ahlrichs, Phys. Chem. Chem. Phys. 7, 3297 (2005).

----- AuxJ basis set information -----
Your calculation utilizes the auxiliary basis: def2/J
   F. Weigend, Phys. Chem. Chem. Phys. 8, 1057 (2006).

================================================================================
                                        WARNINGS
                       Please study these warnings very carefully!
================================================================================


WARNING: Geometry Optimization
  ===> : Switching off AutoStart
         For restart on a previous wavefunction, please use MOREAD

INFO   : the flag for use of LIBINT has been found!

================================================================================
                                       INPUT FILE
================================================================================
NAME = F2-HCNQ.inp
|  1> # avogadro generated ORCA input file 
|  2> # Basic Mode
|  3> # 
|  4> ! wB97X-D3 OPT def2-TZVP def2/J CPCM
|  5> %cpcm
|  6>   epsilon 3
|  7> end
|  8> %pal
|  9>  nprocs 4
| 10> end
| 11> 
| 12> * xyz 0 1
| 13>    N      -10.72019        6.50253        0.00074
| 14>    N       -8.95433        2.82477        0.00174
| 15>    C       -9.67304        6.00316       -0.00043
| 16>    C       -8.62865        3.93996       -0.00058
| 17>    C       -8.37219        5.36519       -0.00032
| 18>    C       -7.14421        6.02025        0.00164
| 19>    C       -7.06281        7.45132        0.00177
| 20>    C       -5.92197        5.28973        0.00095
| 21>    C       -5.81266        8.10703       -0.00044
| 22>    C       -4.66280        5.94975       -0.00019
| 23>    C       -4.59378        7.38041       -0.00122
| 24>    C       -3.38687        8.05419       -0.00184
| 25>    C       -3.19381        9.48254       -0.00060
| 26>    C       -2.06727        7.46166       -0.00067
| 27>    N       -2.94035       10.61361        0.00041
| 28>    N       -0.99431        7.02028        0.00027
| 29>    F       -5.78835        9.47172       -0.00024
| 30>    F       -5.95778        3.92299        0.00062
| 31>    C       -8.25968        8.28797        0.00052
| 32>    C       -3.45850        5.11189       -0.00008
| 33>    N       -9.16375        9.01759       -0.00054
| 34>    N       -2.50593        4.44376       -0.00002
| 35> *
| 36> 
| 37> 
| 38>                          ****END OF INPUT****
================================================================================

                       *****************************
                       * Geometry Optimization Run *
                       *****************************

Geometry optimization settings:
Update method            Update   .... BFGS
Choice of coordinates    CoordSys .... Z-matrix Internals
Initial Hessian          InHess   .... Almoef's Model

Convergence Tolerances:
Energy Change            TolE     ....  5.0000e-06 Eh
Max. Gradient            TolMAXG  ....  3.0000e-04 Eh/bohr
RMS Gradient             TolRMSG  ....  1.0000e-04 Eh/bohr
Max. Displacement        TolMAXD  ....  4.0000e-03 bohr
RMS Displacement         TolRMSD  ....  2.0000e-03 bohr
Strict Convergence                ....  False
------------------------------------------------------------------------------
                        ORCA OPTIMIZATION COORDINATE SETUP
------------------------------------------------------------------------------

The optimization will be done in new redundant internal coordinates
Making redundant internal coordinates   ...  (new redundants) done
Evaluating the initial hessian          ...  (Almloef) done
Evaluating the coordinates              ...  done
Calculating the B-matrix                .... done
Calculating the G-matrix                .... done
Diagonalizing the G-matrix              .... done
Small eigenvalue found = 1.142e-02
Small eigenvalue found = 1.955e-02
The first mode is                       ....   31
The number of degrees of freedom        ....   60

    -----------------------------------------------------------------
                    Redundant Internal Coordinates


    -----------------------------------------------------------------
         Definition                    Initial Value    Approx d2E/dq
    -----------------------------------------------------------------
      1. B(C   2,N   0)                  1.1601         1.302036   
      2. B(C   3,N   1)                  1.1618         1.294177   
      3. B(C   4,C   2)                  1.4489         0.503291   
      4. B(C   4,C   3)                  1.4481         0.504674   
      5. B(C   5,C   4)                  1.3918         0.620732   
      6. B(C   6,C   5)                  1.4334         0.532750   
      7. B(C   7,C   5)                  1.4239         0.551609   
      8. B(C   8,C   6)                  1.4117         0.576969   
      9. B(C   9,C   7)                  1.4217         0.556181   
     10. B(C  10,C   9)                  1.4323         0.534826   
     11. B(C  10,C   8)                  1.4190         0.561595   
     12. B(C  11,C  10)                  1.3822         0.642843   
     13. B(C  12,C  11)                  1.4413         0.517405   
     14. B(C  13,C  11)                  1.4465         0.507639   
     15. B(N  14,C  12)                  1.1591         1.306856   
     16. B(N  15,C  13)                  1.1602         1.301695   
     17. B(F  16,C   8)                  1.3649         0.570167   
     18. B(F  17,C   7)                  1.3672         0.565364   
     19. B(C  18,C   6)                  1.4603         0.482587   
     20. B(C  19,C   9)                  1.4671         0.470705   
     21. B(N  20,C  18)                  1.1618         1.294243   
     22. B(N  21,C  19)                  1.1635         1.285891   
     23. L(N   0,C   2,C   4,C   3, 1) 179.3712         0.475142   
     24. L(N   0,C   2,C   4,C   3, 2) 180.1019         0.475142   
     25. A(N   1,C   3,C   4)          173.9196         0.474853   
     26. A(C   3,C   4,C   5)          128.2783         0.418449   
     27. A(C   2,C   4,C   3)          105.9237         0.403175   
     28. A(C   2,C   4,C   5)          125.7980         0.418244   
     29. A(C   6,C   5,C   7)          117.6108         0.413717   
     30. A(C   4,C   5,C   6)          121.3330         0.422511   
     31. A(C   4,C   5,C   7)          121.0561         0.425147   
     32. A(C   5,C   6,C  18)          121.6992         0.404039   
     33. A(C   5,C   6,C   8)          120.9327         0.417037   
     34. A(C   8,C   6,C  18)          117.3679         0.409776   
     35. A(C   5,C   7,F  17)          119.3655         0.413582   
     36. A(C   5,C   7,C   9)          121.4715         0.416896   
     37. A(C   9,C   7,F  17)          119.1631         0.414189   
     38. A(C   6,C   8,F  16)          118.6977         0.417530   
     39. A(C   6,C   8,C  10)          121.5220         0.420976   
     40. A(C  10,C   8,F  16)          119.7802         0.415528   
     41. A(C   7,C   9,C  19)          117.5105         0.405333   
     42. A(C   7,C   9,C  10)          120.4242         0.414611   
     43. A(C  10,C   9,C  19)          122.0652         0.402543   
     44. A(C   8,C  10,C  11)          120.0260         0.429199   
     45. A(C   8,C  10,C   9)          118.0387         0.415325   
     46. A(C   9,C  10,C  11)          121.9353         0.425459   
     47. A(C  12,C  11,C  13)          106.4835         0.405568   
     48. A(C  10,C  11,C  13)          126.6456         0.421510   
     49. A(C  10,C  11,C  12)          126.8708         0.422947   
     50. L(C  11,C  12,N  14,C  13, 2) 179.9931         0.477892   
     51. L(C  11,C  12,N  14,C  13, 1) 175.0669         0.477892   
     52. L(C  11,C  13,N  15,C  12, 2) 180.0032         0.475871   
     53. L(C  11,C  13,N  15,C  12, 1) 178.1795         0.475871   
     54. L(C   6,C  18,N  20,C   8, 2) 180.0094         0.470969   
     55. L(C   6,C  18,N  20,C   8, 1) 176.0499         0.470969   
     56. L(C   9,C  19,N  21,C   7, 2) 179.9970         0.468263   
     57. L(C   9,C  19,N  21,C   7, 1) 179.7815         0.468263   
     58. D(C   2,C   4,C   3,N   1)     -1.1843         0.015787   
     59. D(C   5,C   4,C   3,N   1)    178.7285         0.015787   
     60. D(C   7,C   5,C   4,C   3)      0.1316         0.026666   
     61. D(C   6,C   5,C   4,C   2)     -0.0959         0.026666   
     62. D(C   7,C   5,C   4,C   2)   -179.9718         0.026666   
     63. D(C   6,C   5,C   4,C   3)   -179.9925         0.026666   
     64. D(C   8,C   6,C   5,C   4)   -179.8010         0.019378   
     65. D(C  18,C   6,C   5,C   7)    179.9105         0.019378   
     66. D(C   8,C   6,C   5,C   7)      0.0791         0.019378   
     67. D(C  18,C   6,C   5,C   4)      0.0304         0.019378   
     68. D(F  17,C   7,C   5,C   4)     -0.1107         0.020819   
     69. D(C   9,C   7,C   5,C   6)     -0.0282         0.020819   
     70. D(F  17,C   7,C   5,C   6)   -179.9911         0.020819   
     71. D(C   9,C   7,C   5,C   4)    179.8522         0.020819   
     72. D(F  16,C   8,C   6,C  18)      0.1603         0.022860   
     73. D(F  16,C   8,C   6,C   5)    179.9989         0.022860   
     74. D(C  10,C   8,C   6,C  18)   -179.9164         0.022860   
     75. D(C  10,C   8,C   6,C   5)     -0.0779         0.022860   
     76. D(C  19,C   9,C   7,F  17)     -0.0702         0.021178   
     77. D(C  19,C   9,C   7,C   5)    179.9668         0.021178   
     78. D(C  10,C   9,C   7,F  17)    179.9377         0.021178   
     79. D(C  10,C   9,C   7,C   5)     -0.0252         0.021178   
     80. D(C  11,C  10,C   9,C  19)     -0.0161         0.019534   
     81. D(C  11,C  10,C   9,C   7)    179.9755         0.019534   
     82. D(C   8,C  10,C   9,C  19)   -179.9631         0.019534   
     83. D(C   8,C  10,C   9,C   7)      0.0285         0.019534   
     84. D(C  11,C  10,C   8,F  16)     -0.0031         0.021609   
     85. D(C  11,C  10,C   8,C   6)   -179.9256         0.021609   
     86. D(C   9,C  10,C   8,F  16)    179.9449         0.021609   
     87. D(C   9,C  10,C   8,C   6)      0.0225         0.021609   
     88. D(C  12,C  11,C  10,C   8)      0.0594         0.028729   
     89. D(C  13,C  11,C  10,C   9)     -0.0443         0.028729   
     90. D(C  13,C  11,C  10,C   8)    179.9016         0.028729   
     91. D(C  12,C  11,C  10,C   9)   -179.8866         0.028729   
    -----------------------------------------------------------------

Number of atoms                         .... 22
Number of degrees of freedom            .... 91

         *************************************************************
         *                GEOMETRY OPTIMIZATION CYCLE   1            *
         *************************************************************
---------------------------------
CARTESIAN COORDINATES (ANGSTROEM)
---------------------------------
  N    -10.720190    6.502530    0.000740
  N     -8.954330    2.824770    0.001740
  C     -9.673040    6.003160   -0.000430
  C     -8.628650    3.939960   -0.000580
  C     -8.372190    5.365190   -0.000320
  C     -7.144210    6.020250    0.001640
  C     -7.062810    7.451320    0.001770
  C     -5.921970    5.289730    0.000950
  C     -5.812660    8.107030   -0.000440
  C     -4.662800    5.949750   -0.000190
  C     -4.593780    7.380410   -0.001220
  C     -3.386870    8.054190   -0.001840
  C     -3.193810    9.482540   -0.000600
  C     -2.067270    7.461660   -0.000670
  N     -2.940350   10.613610    0.000410
  N     -0.994310    7.020280    0.000270
  F     -5.788350    9.471720   -0.000240
  F     -5.957780    3.922990    0.000620
  C     -8.259680    8.287970    0.000520
  C     -3.458500    5.111890   -0.000080
  N     -9.163750    9.017590   -0.000540
  N     -2.505930    4.443760   -0.000020

----------------------------
CARTESIAN COORDINATES (A.U.)
----------------------------
  NO LB      ZA    FRAG     MASS         X           Y           Z
   0 N     7.0000    0    14.007  -20.258223   12.288001    0.001398
   1 N     7.0000    0    14.007  -16.921231    5.338042    0.003288
   2 C     6.0000    0    12.011  -18.279396   11.344328   -0.000813
   3 C     6.0000    0    12.011  -16.305785    7.445445   -0.001096
   4 C     6.0000    0    12.011  -15.821146   10.138740   -0.000605
   5 C     6.0000    0    12.011  -13.500600   11.376624    0.003099
   6 C     6.0000    0    12.011  -13.346777   14.080954    0.003345
   7 C     6.0000    0    12.011  -11.190901    9.996141    0.001795
   8 C     6.0000    0    12.011  -10.984336   15.320066   -0.000831
   9 C     6.0000    0    12.011   -8.811415   11.243398   -0.000359
  10 C     6.0000    0    12.011   -8.680986   13.946954   -0.002305
  11 C     6.0000    0    12.011   -6.400257   15.220213   -0.003477
  12 C     6.0000    0    12.011   -6.035426   17.919404   -0.001134
  13 C     6.0000    0    12.011   -3.906574   14.100494   -0.001266
  14 N     7.0000    0    14.007   -5.556456   20.056816    0.000775
  15 N     7.0000    0    14.007   -1.878974   13.266407    0.000510
  16 F     9.0000    0    18.998  -10.938396   17.898957   -0.000454
  17 F     9.0000    0    18.998  -11.258573    7.413377    0.001172
  18 C     6.0000    0    12.011  -15.608533   15.661994    0.000983
  19 C     6.0000    0    12.011   -6.535618    9.660072   -0.000151
  20 N     7.0000    0    14.007  -17.316978   17.040775   -0.001020
  21 N     7.0000    0    14.007   -4.735521    8.397489   -0.000038

--------------------------------
INTERNAL COORDINATES (ANGSTROEM)
--------------------------------
 N      0   0   0     0.000000000000     0.00000000     0.00000000
 N      1   0   0     4.079728073928     0.00000000     0.00000000
 C      1   2   0     1.160127100063    38.85651048     0.00000000
 C      2   1   3     1.161775185180    41.92778114   359.95394020
 C      4   2   1     1.448120282332   173.91961682     1.06492645
 C      5   4   2     1.391776679500   128.27825237   178.72849904
 C      6   5   4     1.433383173405   121.33295487   180.00753049
 C      6   5   4     1.423913819056   121.05612346     0.13156952
 C      7   6   5     1.411678260334   120.93269148   180.19898543
 C      8   6   5     1.421666905045   121.47148288   179.85221847
 C      9   7   6     1.419029840137   121.52201952   359.92212120
 C     11   9   7     1.382248755073   120.02600256   180.07442696
 C     12  11   9     1.441338760909   126.87082203     0.05936925
 C     12  11   9     1.446525951997   126.64555295   179.90160043
 N     13  12  11     1.159121364051   175.06694281   179.92142645
 N     14  12  11     1.160198409583   178.17948427   180.06971567
 F      9   7   6     1.364906521415   118.69771825   179.99886414
 F      8   6   5     1.367209088838   119.36545490   359.88933740
 C      7   6   5     1.460302222795   121.69924250     0.03044810
 C     10   8   6     1.467088232418   117.51052670   179.96679886
 N     19   7   6     1.161761177222   176.04987407   180.08501478
 N     20  10   8     1.163523659149   179.78152994     0.40581477

---------------------------
INTERNAL COORDINATES (A.U.)
---------------------------
 N      0   0   0     0.000000000000     0.00000000     0.00000000
 N      1   0   0     7.709568760595     0.00000000     0.00000000
 C      1   2   0     2.192322499659    38.85651048     0.00000000
 C      2   1   3     2.195436929176    41.92778114   359.95394020
 C      4   2   1     2.736550742583   173.91961682     1.06492645
 C      5   4   2     2.630076763833   128.27825237   178.72849904
 C      6   5   4     2.708701642706   121.33295487   180.00753049
 C      6   5   4     2.690807156323   121.05612346     0.13156952
 C      7   6   5     2.667685301242   120.93269148   180.19898543
 C      8   6   5     2.686561104194   121.47148288   179.85221847
 C      9   7   6     2.681577773721   121.52201952   359.92212120
 C     11   9   7     2.612071596041   120.02600256   180.07442696
 C     12  11   9     2.723735524324   126.87082203     0.05936925
 C     12  11   9     2.733537894884   126.64555295   179.90160043
 N     13  12  11     2.190421934034   175.06694281   179.92142645
 N     14  12  11     2.192457255124   178.17948427   180.06971567
 F      9   7   6     2.579299523877   118.69771825   179.99886414
 F      8   6   5     2.583650745711   119.36545490   359.88933740
 C      7   6   5     2.759571273839   121.69924250     0.03044810
 C     10   8   6     2.772394973569   117.51052670   179.96679886
 N     19   7   6     2.195410457971   176.04987407   180.08501478
 N     20  10   8     2.198741066130   179.78152994     0.40581477

---------------------
BASIS SET INFORMATION
---------------------
There are 3 groups of distinct atoms

 Group   1 Type N   : 11s6p2d1f contracted to 5s3p2d1f pattern {62111/411/11/1}
 Group   2 Type C   : 11s6p2d1f contracted to 5s3p2d1f pattern {62111/411/11/1}
 Group   3 Type F   : 11s6p2d1f contracted to 5s3p2d1f pattern {62111/411/11/1}

Atom   0N    basis set group =>   1
Atom   1N    basis set group =>   1
Atom   2C    basis set group =>   2
Atom   3C    basis set group =>   2
Atom   4C    basis set group =>   2
Atom   5C    basis set group =>   2
Atom   6C    basis set group =>   2
Atom   7C    basis set group =>   2
Atom   8C    basis set group =>   2
Atom   9C    basis set group =>   2
Atom  10C    basis set group =>   2
Atom  11C    basis set group =>   2
Atom  12C    basis set group =>   2
Atom  13C    basis set group =>   2
Atom  14N    basis set group =>   1
Atom  15N    basis set group =>   1
Atom  16F    basis set group =>   3
Atom  17F    basis set group =>   3
Atom  18C    basis set group =>   2
Atom  19C    basis set group =>   2
Atom  20N    basis set group =>   1
Atom  21N    basis set group =>   1
---------------------------------
AUXILIARY/J BASIS SET INFORMATION
---------------------------------
There are 3 groups of distinct atoms

 Group   1 Type N   : 12s5p4d2f1g contracted to 6s4p3d1f1g pattern {711111/2111/211/2/1}
 Group   2 Type C   : 12s5p4d2f1g contracted to 6s4p3d1f1g pattern {711111/2111/211/2/1}
 Group   3 Type F   : 12s5p4d2f1g contracted to 6s4p3d1f1g pattern {711111/2111/211/2/1}

Atom   0N    basis set group =>   1
Atom   1N    basis set group =>   1
Atom   2C    basis set group =>   2
Atom   3C    basis set group =>   2
Atom   4C    basis set group =>   2
Atom   5C    basis set group =>   2
Atom   6C    basis set group =>   2
Atom   7C    basis set group =>   2
Atom   8C    basis set group =>   2
Atom   9C    basis set group =>   2
Atom  10C    basis set group =>   2
Atom  11C    basis set group =>   2
Atom  12C    basis set group =>   2
Atom  13C    basis set group =>   2
Atom  14N    basis set group =>   1
Atom  15N    basis set group =>   1
Atom  16F    basis set group =>   3
Atom  17F    basis set group =>   3
Atom  18C    basis set group =>   2
Atom  19C    basis set group =>   2
Atom  20N    basis set group =>   1
Atom  21N    basis set group =>   1


           ************************************************************
           *        Program running with 4 parallel MPI-processes     *
           *              working on a common directory               *
           ************************************************************
------------------------------------------------------------------------------
                           ORCA GTO INTEGRAL CALCULATION
------------------------------------------------------------------------------

                         BASIS SET STATISTICS AND STARTUP INFO

 # of primitive gaussian shells          ...  440
 # of primitive gaussian functions       ... 1012
 # of contracted shells                  ...  242
 # of contracted basis functions         ...  682
 Highest angular momentum                ...    3
 Maximum contraction depth               ...    6
 Integral package used                   ... LIBINT
 Integral threshhold            Thresh   ...  2.500e-11
 Primitive cut-off              TCut     ...  2.500e-12


------------------------------ INTEGRAL EVALUATION ----------------------------


 * One electron integrals 
 Pre-screening matrix                    ... done
 Shell pair data                         ... done (   0.007 sec)



           ************************************************************
           *        Program running with 4 parallel MPI-processes     *
           *              working on a common directory               *
           ************************************************************
-------------------------------------------------------------------------------
                                 ORCA SCF
-------------------------------------------------------------------------------

------------
SCF SETTINGS
------------
Hamiltonian:
 Density Functional     Method          .... DFT(GTOs)
 Exchange Functional    Exchange        .... WB97X-D3
 Correlation Functional Correlation     .... WB97X-D3
 Gradients option       PostSCFGGA      .... off
 Hybrid DFT is turned on
   Fraction HF Exchange ScalHFX         ....  0.195728
   Scaling of DF-GGA-X  ScalDFX         ....  0.000000
   Scaling of DF-GGA-C  ScalDFC         ....  1.000000
   Scaling of DF-LDA-C  ScalLDAC        ....  1.000000
   Perturbative correction              ....  0.000000
   Density functional embedding theory  .... OFF
 Long-range corrected/Screened/Range-Separated Hybrid DFT is turned on
   Amount of maximum screened exact exchange              ....  0.804272
   Range separation parameter mu (erf(mu*r12)/r12)        ....  0.250000


General Settings:
 Integral files         IntName         .... F2-HCNQ
 Hartree-Fock type      HFTyp           .... RHF
 Total Charge           Charge          ....    0
 Multiplicity           Mult            ....    1
 Number of Electrons    NEL             ....  144
 Basis Dimension        Dim             ....  682
 Nuclear Repulsion      ENuc            ....   1496.8935865021 Eh

Convergence Acceleration:
 DIIS                   CNVDIIS         .... on
   Start iteration      DIISMaxIt       ....    12
   Startup error        DIISStart       ....  0.200000
   # of expansion vecs  DIISMaxEq       ....     5
   Bias factor          DIISBfac        ....   1.050
   Max. coefficient     DIISMaxC        ....  10.000
 Newton-Raphson         CNVNR           .... off
 SOSCF                  CNVSOSCF        .... on
   Start iteration      SOSCFMaxIt      ....   150
   Startup grad/error   SOSCFStart      ....  0.003300
 Level Shifting         CNVShift        .... on
   Level shift para.    LevelShift      ....    0.2500
   Turn off err/grad.   ShiftErr        ....    0.0010
 Zerner damping         CNVZerner       .... off
 Static damping         CNVDamp         .... on
   Fraction old density DampFac         ....    0.7000
   Max. Damping (<1)    DampMax         ....    0.9800
   Min. Damping (>=0)   DampMin         ....    0.0000
   Turn off err/grad.   DampErr         ....    0.1000
 Fernandez-Rico         CNVRico         .... off

SCF Procedure:
 Maximum # iterations   MaxIter         ....   125
 SCF integral mode      SCFMode         .... Direct
   Integral package                     .... LIBINT
 Reset frequency        DirectResetFreq ....    20
 Integral Threshold     Thresh          ....  2.500e-11 Eh
 Primitive CutOff       TCut            ....  2.500e-12 Eh

Convergence Tolerance:
 Convergence Check Mode ConvCheckMode   .... Total+1el-Energy
 Convergence forced     ConvForced      .... 0
 Energy Change          TolE            ....  1.000e-08 Eh
 1-El. energy change                    ....  1.000e-05 Eh
 Orbital Gradient       TolG            ....  1.000e-05
 Orbital Rotation angle TolX            ....  1.000e-05
 DIIS Error             TolErr          ....  5.000e-07


Diagonalization of the overlap matrix:
Smallest eigenvalue                        ... 7.635e-06
Time for diagonalization                   ...    0.079 sec
Threshold for overlap eigenvalues          ... 1.000e-08
Number of eigenvalues below threshold      ... 0
Time for construction of square roots      ...    0.042 sec
Total time needed                          ...    0.122 sec

-------------------
DFT GRID GENERATION
-------------------

General Integration Accuracy     IntAcc      ...  4.340
Radial Grid Type                 RadialGrid  ... Gauss-Chebyshev
Angular Grid (max. acc.)         AngularGrid ... Lebedev-110
Angular grid pruning method      GridPruning ... 3 (G Style)
Weight generation scheme         WeightScheme... Becke
Basis function cutoff            BFCut       ...    1.0000e-11
Integration weight cutoff        WCut        ...    1.0000e-14
Grids for H and He will be reduced by one unit

# of grid points (after initial pruning)     ...  36876 (   0.0 sec)
# of grid points (after weights+screening)   ...  33875 (   0.0 sec)
nearest neighbour list constructed           ...    0.0 sec
Grid point re-assignment to atoms done       ...    0.0 sec
Grid point division into batches done        ...    0.0 sec
Reduced shell lists constructed in    0.2 sec

Total number of grid points                  ...    33875
Total number of batches                      ...      542
Average number of points per batch           ...       62
Average number of grid points per atom       ...     1540
Average number of shells per batch           ...   102.59 (42.39%)
Average number of basis functions per batch  ...   286.26 (41.97%)
Average number of large shells per batch     ...    70.71 (68.92%)
Average number of large basis fcns per batch ...   197.06 (68.84%)
Maximum spatial batch extension              ...  17.43, 18.89, 22.17 au
Average spatial batch extension              ...   0.92,  0.92,  1.18 au

Time for grid setup =    0.228 sec

------------------------------
INITIAL GUESS: MODEL POTENTIAL
------------------------------
Loading Hartree-Fock densities                     ... done
Calculating cut-offs                               ... done
Setting up the integral package                    ... done
Initializing the effective Hamiltonian             ... done
Starting the Coulomb interaction                   ... done (   0.3 sec)
Reading the grid                                   ... done
Mapping shells                                     ... done
Starting the XC term evaluation                    ... done (   0.4 sec)
  promolecular density results
     # of electrons  =    143.993183780
     EX              =   -130.374887293
     EC              =     -4.815595949
     EX+EC           =   -135.190483242
Transforming the Hamiltonian                       ... done (   0.0 sec)
Diagonalizing the Hamiltonian                      ... done (   0.1 sec)
Back transforming the eigenvectors                 ... done (   0.0 sec)
Now organizing SCF variables                       ... done
                      ------------------
                      INITIAL GUESS DONE (   1.2 sec)
                      ------------------

--------------------
CPCM SOLVATION MODEL
--------------------
CPCM parameters:
  Epsilon                                         ...       3.0000
  Refrac                                          ...       1.3300
  Rsolv                                           ...       1.3000
  Surface type                                    ...    GEPOL SES
  Epsilon function type                           ...         CPCM
Radii:
 Radius for N  used is    3.4582 Bohr (=   1.8300 Ang.)
 Radius for C  used is    3.7795 Bohr (=   2.0000 Ang.)
 Radius for F  used is    3.2503 Bohr (=   1.7200 Ang.)
Calculating surface                               ...        done! (  0.0s)
GEPOL surface points                              ...          833
GEPOL Volume                                      ...    2082.2533
GEPOL Surface-area                                ...    1038.6092
Calculating surface distance matrix               ...        done! (  0.0s)
Performing Cholesky decomposition & store         ...        done! (  0.0s)
Overall time for CPCM initialization              ...                 0.0s
--------------
SCF ITERATIONS
--------------
ITER       Energy         Delta-E        Max-DP      RMS-DP      [F,P]     Damp
               ***  Starting incremental Fock matrix formation  ***
  0  -1060.9226020199   0.000000000000 0.05593453  0.00084013  0.2654995 0.7000
  1  -1061.2029436912  -0.280341671291 0.03369129  0.00062832  0.1184496 0.7000
                               ***Turning on DIIS***
  2  -1061.3068772123  -0.103933521132 0.06005540  0.00118888  0.0371809 0.0000
  3  -1061.4882914308  -0.181414218503 0.03868413  0.00054079  0.0674592 0.0000
  4  -1061.5234418841  -0.035150453336 0.00925747  0.00020016  0.0132935 0.0000
  5  -1061.5256886827  -0.002246798552 0.00493158  0.00009199  0.0044846 0.0000
  6  -1061.5261407631  -0.000452080427 0.00362648  0.00006134  0.0024795 0.0000
                      *** Initiating the SOSCF procedure ***
                           *** Shutting down DIIS ***
                      *** Re-Reading the Fockian *** 
                      *** Removing any level shift *** 
ITER      Energy       Delta-E        Grad      Rot      Max-DP    RMS-DP
  7  -1061.52638035  -0.0002395848  0.003047  0.003047  0.001884  0.000036
               *** Restarting incremental Fock matrix formation ***
  8  -1061.52648905  -0.0001087049  0.001576  0.006088  0.000715  0.000016
  9  -1061.52653728  -0.0000482273  0.000777  0.009014  0.001104  0.000025
 10  -1061.52655706  -0.0000197824  0.000323  0.001806  0.000458  0.000007
 11  -1061.52656287  -0.0000058113  0.000102  0.000437  0.000161  0.000003
 12  -1061.52656314  -0.0000002629  0.000052  0.000274  0.000079  0.000002
 13  -1061.52656341  -0.0000002686  0.000020  0.000118  0.000056  0.000001
 14  -1061.52656342  -0.0000000114  0.000018  0.000059  0.000021  0.000000
 15  -1061.52656343  -0.0000000169  0.000005  0.000031  0.000013  0.000000
                 **** Energy Check signals convergence ****
              ***Rediagonalizing the Fockian in SOSCF/NRSCF***

               *****************************************************
               *                     SUCCESS                       *
               *           SCF CONVERGED AFTER  16 CYCLES          *
               *****************************************************

Setting up the final grid:

General Integration Accuracy     IntAcc      ...  4.670
Radial Grid Type                 RadialGrid  ... Gauss-Chebyshev
Angular Grid (max. acc.)         AngularGrid ... Lebedev-302
Angular grid pruning method      GridPruning ... 3 (G Style)
Weight generation scheme         WeightScheme... Becke
Basis function cutoff            BFCut       ...    1.0000e-11
Integration weight cutoff        WCut        ...    1.0000e-14
Grids for H and He will be reduced by one unit

# of grid points (after initial pruning)     ... 136784 (   0.0 sec)
# of grid points (after weights+screening)   ... 123689 (   0.1 sec)
nearest neighbour list constructed           ...    0.0 sec
Grid point re-assignment to atoms done       ...    0.0 sec
Grid point division into batches done        ...    0.6 sec
Reduced shell lists constructed in    1.0 sec

Total number of grid points                  ...   123689
Total number of batches                      ...     1943
Average number of points per batch           ...       63
Average number of grid points per atom       ...     5622
Average number of shells per batch           ...    92.74 (38.32%)
Average number of basis functions per batch  ...   256.39 (37.59%)
Average number of large shells per batch     ...    62.59 (67.49%)
Average number of large basis fcns per batch ...   172.90 (67.43%)
Maximum spatial batch extension              ...  17.10, 19.06, 21.39 au
Average spatial batch extension              ...   0.63,  0.61,  0.73 au

Final grid set up in    1.2 sec
Final integration                            ... done (   1.5 sec)
Change in XC energy                          ...     0.004156976
Integrated number of electrons               ...   143.999943923
Previous integrated no of electrons          ...   143.997358180

----------------
TOTAL SCF ENERGY
----------------

Total Energy       :        -1061.52240646 Eh          -28885.49319 eV

Components:
Nuclear Repulsion  :         1496.89358650 Eh           40732.54529 eV
Electronic Energy  :        -2558.41599296 Eh          -69618.03848 eV
One Electron Energy:        -4412.25308846 Eh         -120063.51045 eV
Two Electron Energy:         1853.83709550 Eh           50445.47197 eV
CPCM Dielectric    :           -0.02673254 Eh              -0.72743 eV

Virial components:
Potential Energy   :        -2118.01252903 Eh          -57634.05097 eV
Kinetic Energy     :         1056.49012257 Eh           28748.55778 eV
Virial Ratio       :            2.00476321


DFT components:
N(Alpha)           :       71.999971961630 electrons
N(Beta)            :       71.999971961630 electrons
N(Total)           :      143.999943923261 electrons
E(XC)              :      -96.248180096495 Eh       
DFET-embed. en.    :        0.000000000000 Eh       
CPCM Solvation Model Properties:
Surface-charge          :           -0.02741313
Charge-correction       :            0.00041543 Eh               0.01130 eV
Free-energy (cav+disp)  :            0.00524011 Eh               0.14259 eV
Corrected G(solv)       :        -1061.51675091 Eh          -28885.33929 eV

---------------
SCF CONVERGENCE
---------------

  Last Energy change         ...    1.5893e-10  Tolerance :   1.0000e-08
  Last MAX-Density change    ...    7.7296e-06  Tolerance :   1.0000e-07
  Last RMS-Density change    ...    1.1632e-07  Tolerance :   5.0000e-09
  Last Orbital Gradient      ...    3.2623e-06  Tolerance :   1.0000e-05
  Last Orbital Rotation      ...    1.0938e-05  Tolerance :   1.0000e-05

             **** THE GBW FILE WAS UPDATED (F2-HCNQ.gbw) ****
             **** DENSITY FILE WAS UPDATED (F2-HCNQ.scfp) ****
             **** ENERGY FILE WAS UPDATED (F2-HCNQ.en.tmp) ****
             **** THE GBW FILE WAS UPDATED (F2-HCNQ.gbw) ****
             **** DENSITY FILE WAS UPDATED (F2-HCNQ.scfp) ****
----------------
ORBITAL ENERGIES
----------------

  NO   OCC          E(Eh)            E(eV) 
   0   2.0000     -24.879107      -676.9949 
   1   2.0000     -24.878707      -676.9840 
   2   2.0000     -14.475832      -393.9074 
   3   2.0000     -14.475638      -393.9021 
   4   2.0000     -14.475425      -393.8963 
   5   2.0000     -14.475409      -393.8959 
   6   2.0000     -14.474397      -393.8684 
   7   2.0000     -14.473691      -393.8491 
   8   2.0000     -10.484915      -285.3090 
   9   2.0000     -10.482659      -285.2477 
  10   2.0000     -10.437244      -284.0118 
  11   2.0000     -10.435326      -283.9597 
  12   2.0000     -10.424494      -283.6649 
  13   2.0000     -10.422818      -283.6193 
  14   2.0000     -10.421198      -283.5752 
  15   2.0000     -10.418491      -283.5016 
  16   2.0000     -10.375687      -282.3368 
  17   2.0000     -10.374422      -282.3024 
  18   2.0000     -10.373672      -282.2820 
  19   2.0000     -10.373500      -282.2773 
  20   2.0000     -10.373479      -282.2767 
  21   2.0000     -10.372076      -282.2385 
  22   2.0000      -1.417012       -38.5589 
  23   2.0000      -1.416019       -38.5318 
  24   2.0000      -1.111922       -30.2569 
  25   2.0000      -1.093124       -29.7454 
  26   2.0000      -1.078354       -29.3435 
  27   2.0000      -1.072460       -29.1831 
  28   2.0000      -1.068940       -29.0873 
  29   2.0000      -1.064638       -28.9703 
  30   2.0000      -1.061988       -28.8981 
  31   2.0000      -1.036428       -28.2026 
  32   2.0000      -0.980237       -26.6736 
  33   2.0000      -0.977277       -26.5930 
  34   2.0000      -0.918615       -24.9968 
  35   2.0000      -0.878623       -23.9086 
  36   2.0000      -0.831728       -22.6325 
  37   2.0000      -0.771256       -20.9870 
  38   2.0000      -0.768524       -20.9126 
  39   2.0000      -0.756293       -20.5798 
  40   2.0000      -0.728777       -19.8310 
  41   2.0000      -0.698628       -19.0106 
  42   2.0000      -0.693180       -18.8624 
  43   2.0000      -0.677601       -18.4385 
  44   2.0000      -0.662458       -18.0264 
  45   2.0000      -0.656672       -17.8689 
  46   2.0000      -0.644828       -17.5467 
  47   2.0000      -0.631909       -17.1951 
  48   2.0000      -0.583501       -15.8779 
  49   2.0000      -0.578862       -15.7516 
  50   2.0000      -0.575068       -15.6484 
  51   2.0000      -0.574314       -15.6279 
  52   2.0000      -0.533821       -14.5260 
  53   2.0000      -0.525750       -14.3064 
  54   2.0000      -0.524377       -14.2690 
  55   2.0000      -0.521551       -14.1921 
  56   2.0000      -0.520839       -14.1728 
  57   2.0000      -0.520294       -14.1579 
  58   2.0000      -0.515759       -14.0345 
  59   2.0000      -0.514562       -14.0019 
  60   2.0000      -0.513200       -13.9649 
  61   2.0000      -0.512644       -13.9498 
  62   2.0000      -0.490115       -13.3367 
  63   2.0000      -0.486091       -13.2272 
  64   2.0000      -0.481971       -13.1151 
  65   2.0000      -0.481867       -13.1123 
  66   2.0000      -0.478139       -13.0108 
  67   2.0000      -0.457918       -12.4606 
  68   2.0000      -0.455065       -12.3829 
  69   2.0000      -0.452182       -12.3045 
  70   2.0000      -0.411382       -11.1943 
  71   2.0000      -0.354270        -9.6402 
  72   0.0000      -0.152005        -4.1363 
  73   0.0000      -0.062373        -1.6973 
  74   0.0000      -0.008737        -0.2378 
  75   0.0000       0.013268         0.3610 
  76   0.0000       0.017880         0.4865 
  77   0.0000       0.052946         1.4407 
  78   0.0000       0.064081         1.7437 
  79   0.0000       0.067363         1.8330 
  80   0.0000       0.079065         2.1515 
  81   0.0000       0.082454         2.2437 
  82   0.0000       0.084502         2.2994 
  83   0.0000       0.096627         2.6293 
  84   0.0000       0.111764         3.0413 
  85   0.0000       0.114588         3.1181 
  86   0.0000       0.123334         3.3561 
  87   0.0000       0.131440         3.5767 
  88   0.0000       0.134924         3.6715 
  89   0.0000       0.143955         3.9172 
  90   0.0000       0.153472         4.1762 
  91   0.0000       0.164065         4.4644 
  92   0.0000       0.183756         5.0003 
  93   0.0000       0.188039         5.1168 
  94   0.0000       0.188692         5.1346 
  95   0.0000       0.201974         5.4960 
  96   0.0000       0.209397         5.6980 
  97   0.0000       0.231282         6.2935 
  98   0.0000       0.234294         6.3755 
  99   0.0000       0.238757         6.4969 
 100   0.0000       0.243588         6.6284 
 101   0.0000       0.250648         6.8205 
 102   0.0000       0.257565         7.0087 
 103   0.0000       0.259389         7.0583 
 104   0.0000       0.270411         7.3583 
 105   0.0000       0.272417         7.4129 
 106   0.0000       0.283862         7.7243 
 107   0.0000       0.286415         7.7938 
 108   0.0000       0.286489         7.7958 
 109   0.0000       0.296613         8.0712 
 110   0.0000       0.302285         8.2256 
 111   0.0000       0.310007         8.4357 
 112   0.0000       0.313817         8.5394 
 113   0.0000       0.324072         8.8184 
 114   0.0000       0.333877         9.0852 
 115   0.0000       0.336082         9.1453 
 116   0.0000       0.337152         9.1744 
 117   0.0000       0.339882         9.2487 
 118   0.0000       0.343249         9.3403 
 119   0.0000       0.344266         9.3680 
 120   0.0000       0.347052         9.4438 
 121   0.0000       0.357209         9.7201 
 122   0.0000       0.368650        10.0315 
 123   0.0000       0.377863        10.2822 
 124   0.0000       0.378087        10.2883 
 125   0.0000       0.399357        10.8671 
 126   0.0000       0.403733        10.9861 
 127   0.0000       0.404763        11.0142 
 128   0.0000       0.424823        11.5600 
 129   0.0000       0.427635        11.6365 
 130   0.0000       0.432212        11.7611 
 131   0.0000       0.433068        11.7844 
 132   0.0000       0.435864        11.8605 
 133   0.0000       0.445696        12.1280 
 134   0.0000       0.452518        12.3136 
 135   0.0000       0.457150        12.4397 
 136   0.0000       0.463240        12.6054 
 137   0.0000       0.471997        12.8437 
 138   0.0000       0.475812        12.9475 
 139   0.0000       0.489184        13.3114 
 140   0.0000       0.491730        13.3806 
 141   0.0000       0.495907        13.4943 
 142   0.0000       0.510069        13.8797 
 143   0.0000       0.512550        13.9472 
 144   0.0000       0.513100        13.9622 
 145   0.0000       0.521050        14.1785 
 146   0.0000       0.532229        14.4827 
 147   0.0000       0.549308        14.9474 
 148   0.0000       0.555191        15.1075 
 149   0.0000       0.570955        15.5365 
 150   0.0000       0.575043        15.6477 
 151   0.0000       0.581941        15.8354 
 152   0.0000       0.582309        15.8454 
 153   0.0000       0.584762        15.9122 
 154   0.0000       0.586004        15.9460 
 155   0.0000       0.590275        16.0622 
 156   0.0000       0.594573        16.1792 
 157   0.0000       0.598113        16.2755 
 158   0.0000       0.605448        16.4751 
 159   0.0000       0.609631        16.5889 
 160   0.0000       0.628138        17.0925 
 161   0.0000       0.628355        17.0984 
 162   0.0000       0.637188        17.3388 
 163   0.0000       0.639493        17.4015 
 164   0.0000       0.640040        17.4164 
 165   0.0000       0.643382        17.5073 
 166   0.0000       0.651967        17.7409 
 167   0.0000       0.655111        17.8265 
 168   0.0000       0.665704        18.1147 
 169   0.0000       0.671403        18.2698 
 170   0.0000       0.674673        18.3588 
 171   0.0000       0.693424        18.8690 
 172   0.0000       0.696476        18.9521 
 173   0.0000       0.704863        19.1803 
 174   0.0000       0.709065        19.2946 
 175   0.0000       0.712520        19.3886 
 176   0.0000       0.720112        19.5952 
 177   0.0000       0.736585        20.0435 
 178   0.0000       0.754345        20.5268 
 179   0.0000       0.757468        20.6118 
 180   0.0000       0.759228        20.6596 
 181   0.0000       0.763407        20.7733 
 182   0.0000       0.764890        20.8137 
 183   0.0000       0.768308        20.9067 
 184   0.0000       0.776737        21.1361 
 185   0.0000       0.780012        21.2252 
 186   0.0000       0.785648        21.3786 
 187   0.0000       0.803784        21.8721 
 188   0.0000       0.804922        21.9030 
 189   0.0000       0.808224        21.9929 
 190   0.0000       0.821435        22.3524 
 191   0.0000       0.822097        22.3704 
 192   0.0000       0.830693        22.6043 
 193   0.0000       0.834052        22.6957 
 194   0.0000       0.841891        22.9090 
 195   0.0000       0.855520        23.2799 
 196   0.0000       0.862545        23.4711 
 197   0.0000       0.863680        23.5019 
 198   0.0000       0.864660        23.5286 
 199   0.0000       0.866957        23.5911 
 200   0.0000       0.873321        23.7643 
 201   0.0000       0.875951        23.8358 
 202   0.0000       0.886792        24.1308 
 203   0.0000       0.906857        24.6768 
 204   0.0000       0.918091        24.9825 
 205   0.0000       0.919283        25.0150 
 206   0.0000       0.931966        25.3601 
 207   0.0000       0.937930        25.5224 
 208   0.0000       0.941882        25.6299 
 209   0.0000       0.952894        25.9296 
 210   0.0000       0.964788        26.2532 
 211   0.0000       0.970719        26.4146 
 212   0.0000       0.973038        26.4777 
 213   0.0000       0.987762        26.8784 
 214   0.0000       0.993355        27.0306 
 215   0.0000       1.014987        27.6192 
 216   0.0000       1.015870        27.6432 
 217   0.0000       1.022591        27.8261 
 218   0.0000       1.033228        28.1156 
 219   0.0000       1.039861        28.2961 
 220   0.0000       1.052329        28.6353 
 221   0.0000       1.064506        28.9667 
 222   0.0000       1.066673        29.0257 
 223   0.0000       1.069236        29.0954 
 224   0.0000       1.102445        29.9990 
 225   0.0000       1.107690        30.1418 
 226   0.0000       1.121663        30.5220 
 227   0.0000       1.139495        31.0072 
 228   0.0000       1.150004        31.2932 
 229   0.0000       1.153180        31.3796 
 230   0.0000       1.160441        31.5772 
 231   0.0000       1.185595        32.2617 
 232   0.0000       1.188351        32.3367 
 233   0.0000       1.204118        32.7657 
 234   0.0000       1.205955        32.8157 
 235   0.0000       1.215936        33.0873 
 236   0.0000       1.220647        33.2155 
 237   0.0000       1.229353        33.4524 
 238   0.0000       1.235632        33.6233 
 239   0.0000       1.249227        33.9932 
 240   0.0000       1.253538        34.1105 
 241   0.0000       1.263519        34.3821 
 242   0.0000       1.271625        34.6027 
 243   0.0000       1.283717        34.9317 
 244   0.0000       1.292334        35.1662 
 245   0.0000       1.303413        35.4677 
 246   0.0000       1.306857        35.5614 
 247   0.0000       1.309250        35.6265 
 248   0.0000       1.310628        35.6640 
 249   0.0000       1.315191        35.7882 
 250   0.0000       1.321295        35.9543 
 251   0.0000       1.327986        36.1363 
 252   0.0000       1.331611        36.2350 
 253   0.0000       1.340445        36.4754 
 254   0.0000       1.353872        36.8407 
 255   0.0000       1.379337        37.5337 
 256   0.0000       1.383363        37.6432 
 257   0.0000       1.386306        37.7233 
 258   0.0000       1.392796        37.8999 
 259   0.0000       1.402112        38.1534 
 260   0.0000       1.403298        38.1857 
 261   0.0000       1.411609        38.4118 
 262   0.0000       1.415618        38.5209 
 263   0.0000       1.429741        38.9052 
 264   0.0000       1.430450        38.9245 
 265   0.0000       1.447916        39.3998 
 266   0.0000       1.448290        39.4100 
 267   0.0000       1.451529        39.4981 
 268   0.0000       1.458505        39.6879 
 269   0.0000       1.460632        39.7458 
 270   0.0000       1.483929        40.3798 
 271   0.0000       1.490134        40.5486 
 272   0.0000       1.497652        40.7532 
 273   0.0000       1.512929        41.1689 
 274   0.0000       1.514420        41.2095 
 275   0.0000       1.517985        41.3065 
 276   0.0000       1.530342        41.6427 
 277   0.0000       1.548226        42.1294 
 278   0.0000       1.563807        42.5534 
 279   0.0000       1.582422        43.0599 
 280   0.0000       1.585111        43.1331 
 281   0.0000       1.590835        43.2888 
 282   0.0000       1.603044        43.6210 
 283   0.0000       1.608804        43.7778 
 284   0.0000       1.614115        43.9223 
 285   0.0000       1.628979        44.3268 
 286   0.0000       1.634055        44.4649 
 287   0.0000       1.642333        44.6902 
 288   0.0000       1.658920        45.1415 
 289   0.0000       1.671881        45.4942 
 290   0.0000       1.678700        45.6798 
 291   0.0000       1.682089        45.7720 
 292   0.0000       1.691310        46.0229 
 293   0.0000       1.703855        46.3642 
 294   0.0000       1.713714        46.6325 
 295   0.0000       1.718763        46.7699 
 296   0.0000       1.736836        47.2617 
 297   0.0000       1.754773        47.7498 
 298   0.0000       1.765593        48.0442 
 299   0.0000       1.778741        48.4020 
 300   0.0000       1.812350        49.3166 
 301   0.0000       1.831208        49.8297 
 302   0.0000       1.836323        49.9689 
 303   0.0000       1.843073        50.1526 
 304   0.0000       1.864255        50.7290 
 305   0.0000       1.887373        51.3580 
 306   0.0000       1.891146        51.4607 
 307   0.0000       1.896520        51.6069 
 308   0.0000       1.909739        51.9666 
 309   0.0000       1.935766        52.6749 
 310   0.0000       1.952911        53.1414 
 311   0.0000       1.959139        53.3109 
 312   0.0000       1.960493        53.3477 
 313   0.0000       1.963255        53.4229 
 314   0.0000       1.984614        54.0041 
 315   0.0000       1.987665        54.0871 
 316   0.0000       1.992726        54.2248 
 317   0.0000       2.017126        54.8888 
 318   0.0000       2.029852        55.2351 
 319   0.0000       2.038910        55.4816 
 320   0.0000       2.041361        55.5483 
 321   0.0000       2.061672        56.1010 
 322   0.0000       2.074572        56.4520 
 323   0.0000       2.079349        56.5820 
 324   0.0000       2.087730        56.8100 
 325   0.0000       2.099001        57.1167 
 326   0.0000       2.100406        57.1550 
 327   0.0000       2.114199        57.5303 
 328   0.0000       2.129453        57.9454 
 329   0.0000       2.146337        58.4048 
 330   0.0000       2.160788        58.7980 
 331   0.0000       2.189095        59.5683 
 332   0.0000       2.200203        59.8706 
 333   0.0000       2.215016        60.2736 
 334   0.0000       2.224695        60.5370 
 335   0.0000       2.229666        60.6723 
 336   0.0000       2.260975        61.5243 
 337   0.0000       2.273021        61.8521 
 338   0.0000       2.287652        62.2502 
 339   0.0000       2.293851        62.4189 
 340   0.0000       2.312074        62.9147 
 341   0.0000       2.316134        63.0252 
 342   0.0000       2.335218        63.5445 
 343   0.0000       2.340203        63.6802 
 344   0.0000       2.343312        63.7647 
 345   0.0000       2.362723        64.2930 
 346   0.0000       2.363828        64.3230 
 347   0.0000       2.387119        64.9568 
 348   0.0000       2.400412        65.3185 
 349   0.0000       2.414401        65.6992 
 350   0.0000       2.417875        65.7937 
 351   0.0000       2.425343        65.9970 
 352   0.0000       2.430751        66.1441 
 353   0.0000       2.454032        66.7776 
 354   0.0000       2.462186        66.9995 
 355   0.0000       2.482848        67.5617 
 356   0.0000       2.489359        67.7389 
 357   0.0000       2.495598        67.9087 
 358   0.0000       2.505703        68.1836 
 359   0.0000       2.529039        68.8186 
 360   0.0000       2.529912        68.8424 
 361   0.0000       2.533908        68.9511 
 362   0.0000       2.545140        69.2568 
 363   0.0000       2.554180        69.5028 
 364   0.0000       2.566529        69.8388 
 365   0.0000       2.571514        69.9745 
 366   0.0000       2.581690        70.2514 
 367   0.0000       2.593163        70.5635 
 368   0.0000       2.627723        71.5040 
 369   0.0000       2.650134        72.1138 
 370   0.0000       2.657740        72.3208 
 371   0.0000       2.658727        72.3476 
 372   0.0000       2.667120        72.5760 
 373   0.0000       2.673641        72.7535 
 374   0.0000       2.681178        72.9586 
 375   0.0000       2.692906        73.2777 
 376   0.0000       2.710508        73.7567 
 377   0.0000       2.712457        73.8097 
 378   0.0000       2.723611        74.1132 
 379   0.0000       2.725081        74.1532 
 380   0.0000       2.727535        74.2200 
 381   0.0000       2.732201        74.3470 
 382   0.0000       2.739917        74.5569 
 383   0.0000       2.743122        74.6441 
 384   0.0000       2.745990        74.7222 
 385   0.0000       2.748363        74.7867 
 386   0.0000       2.751478        74.8715 
 387   0.0000       2.764070        75.2142 
 388   0.0000       2.764876        75.2361 
 389   0.0000       2.783766        75.7501 
 390   0.0000       2.810059        76.4656 
 391   0.0000       2.817978        76.6811 
 392   0.0000       2.830770        77.0292 
 393   0.0000       2.837038        77.1997 
 394   0.0000       2.840169        77.2849 
 395   0.0000       2.855603        77.7049 
 396   0.0000       2.871359        78.1337 
 397   0.0000       2.879698        78.3606 
 398   0.0000       2.901946        78.9660 
 399   0.0000       2.902889        78.9916 
 400   0.0000       2.906725        79.0960 
 401   0.0000       2.908461        79.1432 
 402   0.0000       2.915639        79.3386 
 403   0.0000       2.925889        79.6175 
 404   0.0000       2.928199        79.6804 
 405   0.0000       2.938406        79.9581 
 406   0.0000       2.953208        80.3609 
 407   0.0000       2.961214        80.5787 
 408   0.0000       2.963708        80.6466 
 409   0.0000       2.973309        80.9079 
 410   0.0000       2.982481        81.1574 
 411   0.0000       3.008553        81.8669 
 412   0.0000       3.015040        82.0434 
 413   0.0000       3.016288        82.0774 
 414   0.0000       3.018181        82.1289 
 415   0.0000       3.019267        82.1584 
 416   0.0000       3.034750        82.5797 
 417   0.0000       3.037666        82.6591 
 418   0.0000       3.041952        82.7757 
 419   0.0000       3.057924        83.2103 
 420   0.0000       3.062537        83.3359 
 421   0.0000       3.063760        83.3691 
 422   0.0000       3.078895        83.7810 
 423   0.0000       3.083318        83.9014 
 424   0.0000       3.085419        83.9585 
 425   0.0000       3.101674        84.4008 
 426   0.0000       3.110618        84.6442 
 427   0.0000       3.110929        84.6527 
 428   0.0000       3.119887        84.8964 
 429   0.0000       3.132214        85.2319 
 430   0.0000       3.132773        85.2471 
 431   0.0000       3.139518        85.4306 
 432   0.0000       3.151936        85.7685 
 433   0.0000       3.157427        85.9180 
 434   0.0000       3.162918        86.0674 
 435   0.0000       3.170262        86.2672 
 436   0.0000       3.175563        86.4115 
 437   0.0000       3.188406        86.7609 
 438   0.0000       3.201179        87.1085 
 439   0.0000       3.201830        87.1262 
 440   0.0000       3.213398        87.4410 
 441   0.0000       3.220982        87.6474 
 442   0.0000       3.222844        87.6980 
 443   0.0000       3.224854        87.7527 
 444   0.0000       3.240737        88.1849 
 445   0.0000       3.247879        88.3793 
 446   0.0000       3.260421        88.7206 
 447   0.0000       3.262528        88.7779 
 448   0.0000       3.274987        89.1169 
 449   0.0000       3.287906        89.4685 
 450   0.0000       3.293459        89.6196 
 451   0.0000       3.299695        89.7893 
 452   0.0000       3.302680        89.8705 
 453   0.0000       3.321679        90.3875 
 454   0.0000       3.323290        90.4313 
 455   0.0000       3.353721        91.2594 
 456   0.0000       3.360882        91.4543 
 457   0.0000       3.363804        91.5338 
 458   0.0000       3.369862        91.6986 
 459   0.0000       3.370664        91.7204 
 460   0.0000       3.388454        92.2045 
 461   0.0000       3.394522        92.3696 
 462   0.0000       3.398718        92.4838 
 463   0.0000       3.401219        92.5519 
 464   0.0000       3.423530        93.1590 
 465   0.0000       3.436231        93.5046 
 466   0.0000       3.437367        93.5355 
 467   0.0000       3.442588        93.6776 
 468   0.0000       3.444151        93.7201 
 469   0.0000       3.458307        94.1053 
 470   0.0000       3.469058        94.3979 
 471   0.0000       3.486036        94.8599 
 472   0.0000       3.495881        95.1277 
 473   0.0000       3.500727        95.2596 
 474   0.0000       3.520982        95.8108 
 475   0.0000       3.523177        95.8705 
 476   0.0000       3.538578        96.2896 
 477   0.0000       3.539507        96.3149 
 478   0.0000       3.546180        96.4965 
 479   0.0000       3.558321        96.8268 
 480   0.0000       3.563848        96.9772 
 481   0.0000       3.566299        97.0439 
 482   0.0000       3.571056        97.1734 
 483   0.0000       3.593999        97.7977 
 484   0.0000       3.601137        97.9919 
 485   0.0000       3.631459        98.8170 
 486   0.0000       3.648785        99.2885 
 487   0.0000       3.659803        99.5883 
 488   0.0000       3.687393       100.3391 
 489   0.0000       3.711262       100.9886 
 490   0.0000       3.726090       101.3921 
 491   0.0000       3.733912       101.6049 
 492   0.0000       3.750153       102.0469 
 493   0.0000       3.756563       102.2213 
 494   0.0000       3.770865       102.6105 
 495   0.0000       3.794158       103.2443 
 496   0.0000       3.816284       103.8464 
 497   0.0000       3.833938       104.3268 
 498   0.0000       3.836140       104.3867 
 499   0.0000       3.841911       104.5437 
 500   0.0000       3.878907       105.5504 
 501   0.0000       3.901521       106.1658 
 502   0.0000       3.931737       106.9880 
 503   0.0000       3.945409       107.3600 
 504   0.0000       3.966366       107.9303 
 505   0.0000       3.969087       108.0044 
 506   0.0000       3.978898       108.2713 
 507   0.0000       3.993713       108.6745 
 508   0.0000       4.005635       108.9989 
 509   0.0000       4.010944       109.1433 
 510   0.0000       4.021233       109.4233 
 511   0.0000       4.025783       109.5471 
 512   0.0000       4.027526       109.5946 
 513   0.0000       4.027636       109.5975 
 514   0.0000       4.028940       109.6330 
 515   0.0000       4.035182       109.8029 
 516   0.0000       4.037234       109.8587 
 517   0.0000       4.040756       109.9545 
 518   0.0000       4.042539       110.0031 
 519   0.0000       4.045769       110.0910 
 520   0.0000       4.056642       110.3868 
 521   0.0000       4.082099       111.0796 
 522   0.0000       4.086203       111.1912 
 523   0.0000       4.112959       111.9193 
 524   0.0000       4.125648       112.2646 
 525   0.0000       4.126146       112.2782 
 526   0.0000       4.142908       112.7343 
 527   0.0000       4.145869       112.8148 
 528   0.0000       4.170520       113.4856 
 529   0.0000       4.171420       113.5101 
 530   0.0000       4.178615       113.7059 
 531   0.0000       4.191733       114.0629 
 532   0.0000       4.199862       114.2840 
 533   0.0000       4.234503       115.2267 
 534   0.0000       4.266691       116.1026 
 535   0.0000       4.280602       116.4811 
 536   0.0000       4.288355       116.6921 
 537   0.0000       4.297331       116.9363 
 538   0.0000       4.337924       118.0409 
 539   0.0000       4.347036       118.2889 
 540   0.0000       4.354566       118.4938 
 541   0.0000       4.374794       119.0442 
 542   0.0000       4.378575       119.1471 
 543   0.0000       4.425807       120.4323 
 544   0.0000       4.442875       120.8968 
 545   0.0000       4.446591       120.9979 
 546   0.0000       4.454843       121.2224 
 547   0.0000       4.471723       121.6818 
 548   0.0000       4.501764       122.4992 
 549   0.0000       4.557517       124.0163 
 550   0.0000       4.564236       124.1992 
 551   0.0000       4.581952       124.6813 
 552   0.0000       4.582181       124.6875 
 553   0.0000       4.586049       124.7927 
 554   0.0000       4.589131       124.8766 
 555   0.0000       4.597345       125.1001 
 556   0.0000       4.598796       125.1396 
 557   0.0000       4.608506       125.4038 
 558   0.0000       4.617030       125.6358 
 559   0.0000       4.626698       125.8988 
 560   0.0000       4.639478       126.2466 
 561   0.0000       4.652557       126.6025 
 562   0.0000       4.656004       126.6963 
 563   0.0000       4.658835       126.7733 
 564   0.0000       4.675464       127.2258 
 565   0.0000       4.679497       127.3356 
 566   0.0000       4.698419       127.8505 
 567   0.0000       4.702894       127.9723 
 568   0.0000       4.733076       128.7936 
 569   0.0000       4.739626       128.9718 
 570   0.0000       4.742150       129.0404 
 571   0.0000       4.743141       129.0674 
 572   0.0000       4.766876       129.7133 
 573   0.0000       4.805648       130.7683 
 574   0.0000       4.833609       131.5292 
 575   0.0000       4.841266       131.7375 
 576   0.0000       4.844291       131.8199 
 577   0.0000       4.853555       132.0719 
 578   0.0000       4.855263       132.1184 
 579   0.0000       4.885884       132.9517 
 580   0.0000       4.903713       133.4368 
 581   0.0000       4.910096       133.6105 
 582   0.0000       4.918364       133.8355 
 583   0.0000       4.948259       134.6490 
 584   0.0000       5.034751       137.0025 
 585   0.0000       5.058799       137.6569 
 586   0.0000       5.122116       139.3799 
 587   0.0000       5.162725       140.4849 
 588   0.0000       5.184442       141.0758 
 589   0.0000       5.202201       141.5591 
 590   0.0000       5.206528       141.6768 
 591   0.0000       5.212710       141.8450 
 592   0.0000       5.221797       142.0923 
 593   0.0000       5.228424       142.2727 
 594   0.0000       5.244804       142.7184 
 595   0.0000       5.259351       143.1142 
 596   0.0000       5.281160       143.7077 
 597   0.0000       5.293895       144.0542 
 598   0.0000       5.314869       144.6249 
 599   0.0000       5.329502       145.0231 
 600   0.0000       5.353535       145.6771 
 601   0.0000       5.377803       146.3374 
 602   0.0000       5.391851       146.7197 
 603   0.0000       5.402080       146.9981 
 604   0.0000       5.412550       147.2830 
 605   0.0000       5.442959       148.1104 
 606   0.0000       5.470746       148.8666 
 607   0.0000       5.526441       150.3821 
 608   0.0000       5.565261       151.4385 
 609   0.0000       5.600089       152.3862 
 610   0.0000       5.656622       153.9245 
 611   0.0000       5.690003       154.8328 
 612   0.0000       5.711889       155.4284 
 613   0.0000       5.718061       155.5964 
 614   0.0000       5.718845       155.6177 
 615   0.0000       5.722479       155.7166 
 616   0.0000       5.727182       155.8445 
 617   0.0000       5.744634       156.3194 
 618   0.0000       5.744845       156.3252 
 619   0.0000       5.754306       156.5826 
 620   0.0000       5.780377       157.2921 
 621   0.0000       5.785755       157.4384 
 622   0.0000       5.796306       157.7255 
 623   0.0000       5.831487       158.6828 
 624   0.0000       5.867446       159.6613 
 625   0.0000       5.878260       159.9556 
 626   0.0000       5.971357       162.4889 
 627   0.0000       6.038310       164.3108 
 628   0.0000       6.142239       167.1388 
 629   0.0000       6.197455       168.6413 
 630   0.0000       6.207285       168.9088 
 631   0.0000       6.253763       170.1735 
 632   0.0000       6.263709       170.4442 
 633   0.0000       6.279280       170.8679 
 634   0.0000       6.327757       172.1870 
 635   0.0000       6.338539       172.4804 
 636   0.0000       6.893025       187.5687 
 637   0.0000       6.895973       187.6490 
 638   0.0000       6.913068       188.1141 
 639   0.0000       6.924415       188.4229 
 640   0.0000       6.985653       190.0893 
 641   0.0000       7.000218       190.4856 
 642   0.0000       7.084073       192.7674 
 643   0.0000       7.136973       194.2069 
 644   0.0000       7.219227       196.4452 
 645   0.0000       7.243944       197.1177 
 646   0.0000       7.411031       201.6644 
 647   0.0000       7.462833       203.0740 
 648   0.0000       7.500874       204.1092 
 649   0.0000       7.675880       208.8713 
 650   0.0000       8.355397       227.3619 
 651   0.0000       8.371912       227.8113 
 652   0.0000       8.561415       232.9680 
 653   0.0000       8.628832       234.8024 
 654   0.0000       8.754510       238.2223 
 655   0.0000       8.773487       238.7387 
 656   0.0000       8.994906       244.7638 
 657   0.0000       9.064284       246.6517 
 658   0.0000       9.075086       246.9456 
 659   0.0000       9.136923       248.6283 
 660   0.0000      22.590068       614.7070 
 661   0.0000      22.852552       621.8496 
 662   0.0000      22.918926       623.6557 
 663   0.0000      22.972534       625.1144 
 664   0.0000      23.017961       626.3506 
 665   0.0000      23.060300       627.5027 
 666   0.0000      23.179229       630.7389 
 667   0.0000      23.394909       636.6078 
 668   0.0000      23.460779       638.4003 
 669   0.0000      23.485912       639.0842 
 670   0.0000      23.513813       639.8434 
 671   0.0000      23.652855       643.6269 
 672   0.0000      23.974616       652.3825 
 673   0.0000      24.170240       657.7057 
 674   0.0000      32.147532       874.7788 
 675   0.0000      32.149975       874.8453 
 676   0.0000      32.194903       876.0678 
 677   0.0000      32.198861       876.1756 
 678   0.0000      32.245577       877.4468 
 679   0.0000      32.256539       877.7451 
 680   0.0000      57.381715      1561.4358 
 681   0.0000      57.455896      1563.4544 

                    ********************************
                    * MULLIKEN POPULATION ANALYSIS *
                    ********************************

-----------------------
MULLIKEN ATOMIC CHARGES
-----------------------
   0 N :   -0.024965
   1 N :   -0.044089
   2 C :   -0.179820
   3 C :   -0.183304
   4 C :    0.420420
   5 C :   -0.046302
   6 C :    0.174086
   7 C :    0.278549
   8 C :    0.283686
   9 C :    0.161870
  10 C :   -0.051291
  11 C :    0.439983
  12 C :   -0.198994
  13 C :   -0.186202
  14 N :   -0.037302
  15 N :   -0.024832
  16 F :   -0.144255
  17 F :   -0.144639
  18 C :   -0.227574
  19 C :   -0.214988
  20 N :   -0.022381
  21 N :   -0.027658
Sum of atomic charges:    0.0000000

--------------------------------
MULLIKEN REDUCED ORBITAL CHARGES
--------------------------------
  0 N s       :     3.712603  s :     3.712603
      pz      :     1.020118  p :     3.269867
      px      :     1.191721
      py      :     1.058028
      dz2     :     0.001842  d :     0.040636
      dxz     :     0.013173
      dyz     :     0.003102
      dx2y2   :     0.012935
      dxy     :     0.009583
      f0      :     0.000314  f :     0.001859
      f+1     :     0.000026
      f-1     :     0.000048
      f+2     :     0.000211
      f-2     :     0.000332
      f+3     :     0.000834
      f-3     :     0.000094
  1 N s       :     3.707794  s :     3.707794
      pz      :     1.023117  p :     3.294163
      px      :     1.054944
      py      :     1.216102
      dz2     :     0.001836  d :     0.040265
      dxz     :     0.001260
      dyz     :     0.015007
      dx2y2   :     0.008469
      dxy     :     0.013693
      f0      :     0.000320  f :     0.001867
      f+1     :     0.000048
      f-1     :     0.000025
      f+2     :     0.000405
      f-2     :     0.000150
      f+3     :     0.000402
      f-3     :     0.000516
  2 C s       :     3.233468  s :     3.233468
      pz      :     0.929866  p :     2.838183
      px      :     0.981960
      py      :     0.926357
      dz2     :     0.004985  d :     0.090762
      dxz     :     0.031772
      dyz     :     0.007511
      dx2y2   :     0.025278
      dxy     :     0.021216
      f0      :     0.002809  f :     0.017407
      f+1     :     0.001103
      f-1     :     0.000651
      f+2     :     0.001659
      f-2     :     0.002616
      f+3     :     0.006282
      f-3     :     0.002287
  3 C s       :     3.248753  s :     3.248753
      pz      :     0.927561  p :     2.829583
      px      :     0.933976
      py      :     0.968046
      dz2     :     0.004065  d :     0.087700
      dxz     :     0.003495
      dyz     :     0.035869
      dx2y2   :     0.015432
      dxy     :     0.028839
      f0      :     0.002753  f :     0.017267
      f+1     :     0.000516
      f-1     :     0.001165
      f+2     :     0.003276
      f-2     :     0.001005
      f+3     :     0.004264
      f-3     :     0.004288
  4 C s       :     2.932819  s :     2.932819
      pz      :     1.002535  p :     2.532065
      px      :     0.774154
      py      :     0.755376
      dz2     :     0.006297  d :     0.107083
      dxz     :     0.021812
      dyz     :     0.015182
      dx2y2   :     0.033848
      dxy     :     0.029944
      f0      :     0.001672  f :     0.007612
      f+1     :     0.000868
      f-1     :     0.000809
      f+2     :     0.000435
      f-2     :     0.000591
      f+3     :     0.001764
      f-3     :     0.001473
  5 C s       :     3.256295  s :     3.256295
      pz      :     0.919790  p :     2.637770
      px      :     0.863031
      py      :     0.854948
      dz2     :     0.007647  d :     0.142119
      dxz     :     0.031952
      dyz     :     0.027522
      dx2y2   :     0.034757
      dxy     :     0.040240
      f0      :     0.002115  f :     0.010118
      f+1     :     0.000898
      f-1     :     0.000903
      f+2     :     0.001104
      f-2     :     0.000759
      f+3     :     0.002937
      f-3     :     0.001401
  6 C s       :     3.103039  s :     3.103039
      pz      :     1.046774  p :     2.608341
      px      :     0.766832
      py      :     0.794735
      dz2     :     0.006746  d :     0.105826
      dxz     :     0.022001
      dyz     :     0.020174
      dx2y2   :     0.030553
      dxy     :     0.026351
      f0      :     0.001897  f :     0.008708
      f+1     :     0.000925
      f-1     :     0.000951
      f+2     :     0.000761
      f-2     :     0.000512
      f+3     :     0.002207
      f-3     :     0.001455
  7 C s       :     3.166039  s :     3.166039
      pz      :     0.876141  p :     2.318691
      px      :     0.850376
      py      :     0.592174
      dz2     :     0.006855  d :     0.219390
      dxz     :     0.029574
      dyz     :     0.047889
      dx2y2   :     0.035807
      dxy     :     0.099265
      f0      :     0.002804  f :     0.017331
      f+1     :     0.000876
      f-1     :     0.001450
      f+2     :     0.003070
      f-2     :     0.000845
      f+3     :     0.005935
      f-3     :     0.002352
  8 C s       :     3.165897  s :     3.165897
      pz      :     0.876956  p :     2.312368
      px      :     0.847792
      py      :     0.587620
      dz2     :     0.006945  d :     0.220514
      dxz     :     0.030197
      dyz     :     0.048231
      dx2y2   :     0.034899
      dxy     :     0.100242
      f0      :     0.002840  f :     0.017534
      f+1     :     0.000875
      f-1     :     0.001456
      f+2     :     0.003105
      f-2     :     0.000857
      f+3     :     0.006051
      f-3     :     0.002350
  9 C s       :     3.104936  s :     3.104936
      pz      :     1.048454  p :     2.619766
      px      :     0.769000
      py      :     0.802312
      dz2     :     0.006801  d :     0.104830
      dxz     :     0.021602
      dyz     :     0.019944
      dx2y2   :     0.028562
      dxy     :     0.027920
      f0      :     0.001867  f :     0.008598
      f+1     :     0.000929
      f-1     :     0.000950
      f+2     :     0.000763
      f-2     :     0.000484
      f+3     :     0.002163
      f-3     :     0.001441
 10 C s       :     3.254429  s :     3.254429
      pz      :     0.920063  p :     2.643745
      px      :     0.866405
      py      :     0.857277
      dz2     :     0.007799  d :     0.142908
      dxz     :     0.031968
      dyz     :     0.028275
      dx2y2   :     0.036348
      dxy     :     0.038518
      f0      :     0.002144  f :     0.010209
      f+1     :     0.000881
      f-1     :     0.000916
      f+2     :     0.001090
      f-2     :     0.000793
      f+3     :     0.003013
      f-3     :     0.001373
 11 C s       :     2.916564  s :     2.916564
      pz      :     0.998651  p :     2.527954
      px      :     0.772583
      py      :     0.756719
      dz2     :     0.006192  d :     0.107855
      dxz     :     0.022104
      dyz     :     0.015515
      dx2y2   :     0.033836
      dxy     :     0.030208
      f0      :     0.001692  f :     0.007645
      f+1     :     0.000862
      f-1     :     0.000815
      f+2     :     0.000454
      f-2     :     0.000581
      f+3     :     0.001809
      f-3     :     0.001432
 12 C s       :     3.252443  s :     3.252443
      pz      :     0.929178  p :     2.840347
      px      :     0.933621
      py      :     0.977547
      dz2     :     0.003781  d :     0.088652
      dxz     :     0.002497
      dyz     :     0.037057
      dx2y2   :     0.015378
      dxy     :     0.029938
      f0      :     0.002789  f :     0.017552
      f+1     :     0.000515
      f-1     :     0.001194
      f+2     :     0.003713
      f-2     :     0.000638
      f+3     :     0.005114
      f-3     :     0.003589
 13 C s       :     3.236169  s :     3.236169
      pz      :     0.930970  p :     2.842857
      px      :     0.984237
      py      :     0.927650
      dz2     :     0.004856  d :     0.089750
      dxz     :     0.032969
      dyz     :     0.006047
      dx2y2   :     0.023960
      dxy     :     0.021917
      f0      :     0.002807  f :     0.017426
      f+1     :     0.001111
      f-1     :     0.000618
      f+2     :     0.002078
      f-2     :     0.002218
      f+3     :     0.005955
      f-3     :     0.002640
 14 N s       :     3.703076  s :     3.703076
      pz      :     1.021379  p :     3.292413
      px      :     1.050777
      py      :     1.220257
      dz2     :     0.001794  d :     0.039965
      dxz     :     0.000765
      dyz     :     0.015491
      dx2y2   :     0.007145
      dxy     :     0.014770
      f0      :     0.000317  f :     0.001849
[...]
   3 C :   -0.129169
   4 C :   -0.066195
   5 C :    0.008945
   6 C :   -0.059765
   7 C :   -0.137916
   8 C :   -0.137899
   9 C :   -0.059796
  10 C :    0.008887
  11 C :   -0.066156
  12 C :   -0.129148
  13 C :   -0.122276
  14 N :    0.100733
  15 N :    0.117578
  16 F :    0.315296
  17 F :    0.315271
  18 C :   -0.133893
  19 C :   -0.133944
  20 N :    0.106682
  21 N :    0.106910

-------------------------------
LOEWDIN REDUCED ORBITAL CHARGES
-------------------------------
  0 N s       :     3.298185  s :     3.298185
      pz      :     0.985666  p :     3.456140
      px      :     1.425120
      py      :     1.045354
      dz2     :     0.011501  d :     0.111366
      dxz     :     0.028746
      dyz     :     0.003814
      dx2y2   :     0.034566
      dxy     :     0.032738
      f0      :     0.001797  f :     0.016980
      f+1     :     0.002429
      f-1     :     0.000575
      f+2     :     0.001779
      f-2     :     0.001222
      f+3     :     0.004622
      f-3     :     0.004556
  1 N s       :     3.298860  s :     3.298860
      pz      :     0.985748  p :     3.473067
      px      :     1.014981
      py      :     1.472339
      dz2     :     0.011429  d :     0.110439
      dxz     :     0.001050
      dyz     :     0.031436
      dx2y2   :     0.033935
      dxy     :     0.032590
      f0      :     0.001795  f :     0.016913
      f+1     :     0.000380
      f-1     :     0.002624
      f+2     :     0.002626
      f-2     :     0.000379
      f+3     :     0.004582
      f-3     :     0.004527
  2 C s       :     2.795002  s :     2.795002
      pz      :     0.860084  p :     2.850922
      px      :     1.106044
      py      :     0.884794
      dz2     :     0.041164  d :     0.413525
      dxz     :     0.110846
      dyz     :     0.017496
      dx2y2   :     0.125336
      dxy     :     0.118683
      f0      :     0.006900  f :     0.062746
      f+1     :     0.008441
      f-1     :     0.002346
      f+2     :     0.006218
      f-2     :     0.005118
      f+3     :     0.016718
      f-3     :     0.017004
  3 C s       :     2.798094  s :     2.798094
      pz      :     0.861430  p :     2.848447
      px      :     0.848332
      py      :     1.138685
      dz2     :     0.041802  d :     0.419327
      dxz     :     0.004347
      dyz     :     0.124679
      dx2y2   :     0.123544
      dxy     :     0.124956
      f0      :     0.006852  f :     0.063301
      f+1     :     0.001392
      f-1     :     0.009387
      f+2     :     0.010137
      f-2     :     0.001226
      f+3     :     0.017314
      f-3     :     0.016994
  4 C s       :     2.689943  s :     2.689943
      pz      :     0.868084  p :     2.830648
      px      :     0.993464
      py      :     0.969100
      dz2     :     0.031580  d :     0.491548
      dxz     :     0.071805
      dyz     :     0.058769
      dx2y2   :     0.174075
      dxy     :     0.155320
      f0      :     0.004360  f :     0.054056
      f+1     :     0.004946
      f-1     :     0.004556
      f+2     :     0.005650
      f-2     :     0.005338
      f+3     :     0.018646
      f-3     :     0.010560
  5 C s       :     2.684924  s :     2.684924
      pz      :     0.805178  p :     2.756273
      px      :     0.985695
      py      :     0.965400
      dz2     :     0.033250  d :     0.495097
      dxz     :     0.078901
      dyz     :     0.080552
      dx2y2   :     0.152211
      dxy     :     0.150182
      f0      :     0.004589  f :     0.054761
      f+1     :     0.004613
      f-1     :     0.004227
      f+2     :     0.007242
      f-2     :     0.006033
      f+3     :     0.018257
      f-3     :     0.009800
  6 C s       :     2.681658  s :     2.681658
      pz      :     0.901939  p :     2.849652
      px      :     0.987771
      py      :     0.959943
      dz2     :     0.033749  d :     0.473321
      dxz     :     0.067508
      dyz     :     0.063749
      dx2y2   :     0.152574
      dxy     :     0.155742
      f0      :     0.004623  f :     0.055134
      f+1     :     0.004842
      f-1     :     0.004746
      f+2     :     0.005610
      f-2     :     0.006267
      f+3     :     0.017979
      f-3     :     0.011068
  7 C s       :     2.702367  s :     2.702367
      pz      :     0.811515  p :     2.609479
      px      :     1.030817
      py      :     0.767147
      dz2     :     0.051416  d :     0.705238
      dxz     :     0.084573
      dyz     :     0.127064
      dx2y2   :     0.222212
      dxy     :     0.219973
      f0      :     0.009047  f :     0.120832
      f+1     :     0.005107
      f-1     :     0.012438
      f+2     :     0.021702
      f-2     :     0.005886
      f+3     :     0.043272
      f-3     :     0.023379
  8 C s       :     2.702363  s :     2.702363
      pz      :     0.811448  p :     2.609432
      px      :     1.030831
      py      :     0.767153
      dz2     :     0.051418  d :     0.705268
      dxz     :     0.084593
      dyz     :     0.127063
      dx2y2   :     0.222218
      dxy     :     0.219975
      f0      :     0.009047  f :     0.120836
      f+1     :     0.005107
      f-1     :     0.012439
      f+2     :     0.021702
      f-2     :     0.005887
      f+3     :     0.043274
      f-3     :     0.023380
  9 C s       :     2.681653  s :     2.681653
      pz      :     0.901884  p :     2.849628
      px      :     0.987791
      py      :     0.959953
      dz2     :     0.033749  d :     0.473375
      dxz     :     0.067530
      dyz     :     0.063755
      dx2y2   :     0.152602
      dxy     :     0.155739
      f0      :     0.004623  f :     0.055139
      f+1     :     0.004842
      f-1     :     0.004745
      f+2     :     0.005612
      f-2     :     0.006267
      f+3     :     0.017982
      f-3     :     0.011068
 10 C s       :     2.684911  s :     2.684911
      pz      :     0.805221  p :     2.756334
      px      :     0.985708
      py      :     0.965406
      dz2     :     0.033253  d :     0.495102
      dxz     :     0.078885
      dyz     :     0.080549
      dx2y2   :     0.152217
      dxy     :     0.150198
      f0      :     0.004590  f :     0.054765
      f+1     :     0.004613
      f-1     :     0.004227
      f+2     :     0.007242
      f-2     :     0.006032
      f+3     :     0.018260
      f-3     :     0.009801
 11 C s       :     2.689946  s :     2.689946
      pz      :     0.867981  p :     2.830566
      px      :     0.993482
      py      :     0.969104
      dz2     :     0.031579  d :     0.491584
      dxz     :     0.071827
      dyz     :     0.058766
      dx2y2   :     0.174071
      dxy     :     0.155341
      f0      :     0.004360  f :     0.054060
      f+1     :     0.004945
      f-1     :     0.004556
      f+2     :     0.005651
      f-2     :     0.005337
      f+3     :     0.018649
      f-3     :     0.010561
 12 C s       :     2.798090  s :     2.798090
      pz      :     0.861432  p :     2.848431
      px      :     0.848341
      py      :     1.138659
      dz2     :     0.041803  d :     0.419323
      dxz     :     0.004354
      dyz     :     0.124656
      dx2y2   :     0.123539
      dxy     :     0.124971
      f0      :     0.006852  f :     0.063304
      f+1     :     0.001392
      f-1     :     0.009386
      f+2     :     0.010134
      f-2     :     0.001229
      f+3     :     0.017313
      f-3     :     0.016997
 13 C s       :     2.795007  s :     2.795007
      pz      :     0.860118  p :     2.851068
      px      :     1.106276
      py      :     0.884674
      dz2     :     0.041163  d :     0.413450
      dxz     :     0.110891
      dyz     :     0.017405
      dx2y2   :     0.125390
      dxy     :     0.118602
      f0      :     0.006900  f :     0.062751
      f+1     :     0.008447
      f-1     :     0.002339
      f+2     :     0.006249
      f-2     :     0.005088
      f+3     :     0.016710
      f-3     :     0.017018
 14 N s       :     3.298859  s :     3.298859
      pz      :     0.985724  p :     3.473057
      px      :     1.015033
      py      :     1.472300
      dz2     :     0.011429  d :     0.110439
      dxz     :     0.001053
      dyz     :     0.031433
      dx2y2   :     0.033933
      dxy     :     0.032591
      f0      :     0.001795  f :     0.016912
      f+1     :     0.000380
      f-1     :     0.002624
      f+2     :     0.002625
      f-2     :     0.000380
      f+3     :     0.004582
      f-3     :     0.004527
 15 N s       :     3.298171  s :     3.298171
      pz      :     0.985564  p :     3.455892
      px      :     1.425688
      py      :     1.044640
      dz2     :     0.011501  d :     0.111378
      dxz     :     0.028781
      dyz     :     0.003781
      dx2y2   :     0.034587
      dxy     :     0.032728
      f0      :     0.001797  f :     0.016982
      f+1     :     0.002431
      f-1     :     0.000572
      f+2     :     0.001790
      f-2     :     0.001212
      f+3     :     0.004623
      f-3     :     0.004557
 16 F s       :     3.557114  s :     3.557114
      pz      :     1.774465  p :     5.091187
      px      :     1.799741
      py      :     1.516981
      dz2     :     0.004325  d :     0.034678
      dxz     :     0.000101
      dyz     :     0.008676
      dx2y2   :     0.013077
      dxy     :     0.008499
      f0      :     0.000170  f :     0.001725
      f+1     :     0.000034
      f-1     :     0.000275
      f+2     :     0.000279
      f-2     :     0.000011
      f+3     :     0.000487
      f-3     :     0.000468
 17 F s       :     3.557121  s :     3.557121
      pz      :     1.774479  p :     5.091205
      px      :     1.799748
      py      :     1.516979
      dz2     :     0.004325  d :     0.034678
      dxz     :     0.000101
      dyz     :     0.008677
      dx2y2   :     0.013077
      dxy     :     0.008499
      f0      :     0.000170  f :     0.001725
      f+1     :     0.000034
      f-1     :     0.000275
      f+2     :     0.000279
      f-2     :     0.000011
      f+3     :     0.000487
      f-3     :     0.000468
 18 C s       :     2.796713  s :     2.796713
      pz      :     0.856110  p :     2.854145
      px      :     1.011736
      py      :     0.986300
      dz2     :     0.040360  d :     0.420049
      dxz     :     0.079955
      dyz     :     0.056606
      dx2y2   :     0.119259
      dxy     :     0.123869
      f0      :     0.006897  f :     0.062986
      f+1     :     0.005814
      f-1     :     0.004900
      f+2     :     0.000349
      f-2     :     0.011134
      f+3     :     0.016940
      f-3     :     0.016952
 19 C s       :     2.796700  s :     2.796700
      pz      :     0.856133  p :     2.854269
      px      :     1.011801
      py      :     0.986335
      dz2     :     0.040358  d :     0.419992
      dxz     :     0.079952
      dyz     :     0.056581
      dx2y2   :     0.119229
      dxy     :     0.123872
      f0      :     0.006896  f :     0.062983
      f+1     :     0.005814
      f-1     :     0.004899
      f+2     :     0.000350
      f-2     :     0.011133
      f+3     :     0.016938
      f-3     :     0.016952
 20 N s       :     3.296698  s :     3.296698
      pz      :     1.001240  p :     3.468680
      px      :     1.255491
      py      :     1.211948
      dz2     :     0.011484  d :     0.110926
      dxz     :     0.017160
      dyz     :     0.014920
      dx2y2   :     0.032657
      dxy     :     0.034705
      f0      :     0.001781  f :     0.017015
      f+1     :     0.001594
      f-1     :     0.001446
      f+2     :     0.000014
      f-2     :     0.002948
      f+3     :     0.004626
      f-3     :     0.004607
 21 N s       :     3.296687  s :     3.296687
      pz      :     1.001178  p :     3.468446
      px      :     1.255390
      py      :     1.211878
      dz2     :     0.011484  d :     0.110940
      dxz     :     0.017168
      dyz     :     0.014915
      dx2y2   :     0.032672
      dxy     :     0.034702
      f0      :     0.001781  f :     0.017017
      f+1     :     0.001594
      f-1     :     0.001446
      f+2     :     0.000014
      f-2     :     0.002948
      f+3     :     0.004627
      f-3     :     0.004608


                      *****************************
                      * MAYER POPULATION ANALYSIS *
                      *****************************

  NA   - Mulliken gross atomic population
  ZA   - Total nuclear charge
  QA   - Mulliken gross atomic charge
  VA   - Mayer's total valence
  BVA  - Mayer's bonded valence
  FA   - Mayer's free valence

  ATOM       NA         ZA         QA         VA         BVA        FA
  0 N      7.0068     7.0000    -0.0068     3.0817     3.0817     0.0000
  1 N      7.0162     7.0000    -0.0162     3.0871     3.0871    -0.0000
  2 C      6.1928     6.0000    -0.1928     4.0229     4.0229     0.0000
  3 C      6.2279     6.0000    -0.2279     4.0275     4.0275     0.0000
  4 C      5.5498     6.0000     0.4502     3.6733     3.6733    -0.0000
  5 C      6.0863     6.0000    -0.0863     4.0629     4.0629    -0.0000
  6 C      5.8299     6.0000     0.1701     3.7237     3.7237    -0.0000
  7 C      5.6943     6.0000     0.3057     3.9252     3.9252     0.0000
  8 C      5.6942     6.0000     0.3058     3.9251     3.9251    -0.0000
  9 C      5.8295     6.0000     0.1705     3.7231     3.7231    -0.0000
 10 C      6.0868     6.0000    -0.0868     4.0637     4.0637     0.0000
 11 C      5.5495     6.0000     0.4505     3.6728     3.6728    -0.0000
 12 C      6.2279     6.0000    -0.2279     4.0276     4.0276     0.0000
 13 C      6.1934     6.0000    -0.1934     4.0239     4.0239    -0.0000
 14 N      7.0162     7.0000    -0.0162     3.0871     3.0871    -0.0000
 15 N      7.0060     7.0000    -0.0060     3.0824     3.0824    -0.0000
 16 F      9.1402     9.0000    -0.1402     1.2022     1.2022    -0.0000
 17 F      9.1402     9.0000    -0.1402     1.2022     1.2022    -0.0000
 18 C      6.2583     6.0000    -0.2583     4.0504     4.0504     0.0000
 19 C      6.2589     6.0000    -0.2589     4.0511     4.0511     0.0000
 20 N      6.9978     7.0000     0.0022     3.0925     3.0925    -0.0000
 21 N      6.9971     7.0000     0.0029     3.0931     3.0931    -0.0000

  Mayer bond orders larger than 0.100000
B(  0-N ,  2-C ) :   2.9500 B(  1-N ,  3-C ) :   2.9659 B(  2-C ,  4-C ) :   0.9809 
B(  3-C ,  4-C ) :   0.9314 B(  4-C ,  5-C ) :   1.6080 B(  5-C ,  6-C ) :   1.0618 
B(  5-C ,  7-C ) :   1.1158 B(  6-C ,  8-C ) :   1.6516 B(  6-C , 18-C ) :   0.9599 
B(  7-C ,  9-C ) :   1.6517 B(  7-C , 17-F ) :   1.0966 B(  8-C , 10-C ) :   1.1158 
B(  8-C , 16-F ) :   1.0966 B(  9-C , 10-C ) :   1.0618 B(  9-C , 19-C ) :   0.9597 
B( 10-C , 11-C ) :   1.6081 B( 11-C , 12-C ) :   0.9314 B( 11-C , 13-C ) :   0.9807 
B( 12-C , 14-N ) :   2.9658 B( 13-C , 15-N ) :   2.9509 B( 18-C , 20-N ) :   2.9772 
B( 19-C , 21-N ) :   2.9780 

-------
TIMINGS
-------

Total SCF time: 0 days 0 hours 10 min 19 sec 

Total time                  ....     619.868 sec
Sum of individual times     ....     619.134 sec  ( 99.9%)

Fock matrix formation       ....     616.954 sec  ( 99.5%)
  XC integration            ....       3.407 sec  (  0.6% of F)
    Basis function eval.    ....       0.607 sec  ( 17.8% of XC)
    Density eval.           ....       0.822 sec  ( 24.1% of XC)
    XC-Functional eval.     ....       0.289 sec  (  8.5% of XC)
    XC-Potential eval.      ....       1.572 sec  ( 46.1% of XC)
Diagonalization             ....       0.110 sec  (  0.0%)
Density matrix formation    ....       0.030 sec  (  0.0%)
Population analysis         ....       0.070 sec  (  0.0%)
Initial guess               ....       0.128 sec  (  0.0%)
Orbital Transformation      ....       0.000 sec  (  0.0%)
Orbital Orthonormalization  ....       0.104 sec  (  0.0%)
DIIS solution               ....       0.026 sec  (  0.0%)
SOSCF solution              ....       0.346 sec  (  0.1%)
Grid generation             ....       1.470 sec  (  0.2%)


-------------------------------------------------------------------------------
                          DFT DISPERSION CORRECTION                            
                                                                               
                              DFTD3 V3.1  Rev 1                                
                              USING zero damping                               
-------------------------------------------------------------------------------
The omegaB97X-D3 functional is recognized. Fit by Chai et al.
Active option DFTDOPT                   ...         3   

molecular C6(AA) [au] = 11136.154069 


            DFT-D V3
 parameters
 s6 scaling factor         :     1.0000 
 rs6 scaling factor        :     1.2810 
 s8 scaling factor         :     1.0000 
 rs8 scaling factor        :     1.0940 
 Damping factor alpha6     :    14.0000 
 Damping factor alpha8     :    16.0000 
 ad hoc parameters k1-k3   :    16.0000     1.3333    -4.0000 

 Edisp/kcal,au: -6.944512449089  -0.011066783842 
 E6   /kcal   :  -2.815975219 
 E8   /kcal   :  -4.128537230 
 % E8         :  59.450353929 

-------------------------   ----------------
Dispersion correction           -0.011066784
-------------------------   ----------------


-------------------------   --------------------
FINAL SINGLE POINT ENERGY     -1061.563659078015
-------------------------   --------------------

                                *** OPTIMIZATION RUN DONE ***

                            ***************************************
                            *     ORCA property calculations      *
                            ***************************************

                                    ---------------------
                                    Active property flags
                                    ---------------------
   (+) Dipole Moment


------------------------------------------------------------------------------
                       ORCA ELECTRIC PROPERTIES CALCULATION
------------------------------------------------------------------------------

Dipole Moment Calculation                       ... on
Quadrupole Moment Calculation                   ... off
Polarizability Calculation                      ... off
GBWName                                         ... F2-HCNQ.gbw
Electron density file                           ... F2-HCNQ.scfp
The origin for moment calculation is the CENTER OF MASS  = (-11.103271, 12.688860  0.000143)

-------------
DIPOLE MOMENT
-------------
                                X             Y             Z
Electronic contribution:      0.00249      -0.00222      -0.00226
Nuclear contribution   :      0.00009       0.00020       0.00031
                        -----------------------------------------
Total Dipole Moment    :      0.00258      -0.00202      -0.00195
                        -----------------------------------------
Magnitude (a.u.)       :      0.00381
Magnitude (Debye)      :      0.00969



--------------------
Rotational spectrum 
--------------------
 
Rotational constants in cm-1:     0.015331     0.007791     0.005166 
Rotational constants in MHz :   459.607581   233.553635   154.860586 

 Dipole components along the rotational axes: 
x,y,z [a.u.] :     0.001634     0.002839    -0.001950 
x,y,z [Debye]:     0.004152     0.007217    -0.004957 

 

Timings for individual modules:

Sum of individual times         ...    17358.830 sec (= 289.314 min)
GTO integral calculation        ...       53.481 sec (=   0.891 min)   0.3 %
SCF iterations                  ...    10934.030 sec (= 182.234 min)  63.0 %
SCF Gradient evaluation         ...     6363.188 sec (= 106.053 min)  36.7 %
Geometry relaxation             ...        8.130 sec (=   0.135 min)   0.0 %
                             ****ORCA TERMINATED NORMALLY****
TOTAL RUN TIME: 0 days 4 hours 49 minutes 20 seconds 624 msec
