Warning: no access to tty (Bad file descriptor).
Thus no job control in this shell.

                                 *****************
                                 * O   R   C   A *
                                 *****************

           --- An Ab Initio, DFT and Semiempirical electronic structure package ---

                  #######################################################
                  #                        -***-                        #
                  #          Department of theory and spectroscopy      #
                  #               Directorship: Frank Neese             #
                  #        Max Planck Institute fuer Kohlenforschung    #
                  #                Kaiser Wilhelm Platz 1               #
                  #                 D-45470 Muelheim/Ruhr               #
                  #                      Germany                        #
                  #                                                     #
                  #                  All rights reserved                #
                  #                        -***-                        #
                  #######################################################


                         Program Version 4.2.1 -  RELEASE  -


 With contributions from (in alphabetic order):
   Daniel Aravena         : Magnetic Suceptibility
   Michael Atanasov       : Ab Initio Ligand Field Theory (pilot matlab implementation)
   Alexander A. Auer      : GIAO ZORA, VPT2
   Ute Becker             : Parallelization
   Giovanni Bistoni       : ED, misc. LED, open-shell LED, HFLD
   Martin Brehm           : Molecular dynamics
   Dmytro Bykov           : SCF Hessian
   Vijay G. Chilkuri      : MRCI spin determinant printing, contributions to CSF-ICE
   Dipayan Datta          : RHF DLPNO-CCSD density
   Achintya Kumar Dutta   : EOM-CC, STEOM-CC
   Dmitry Ganyushin       : Spin-Orbit,Spin-Spin,Magnetic field MRCI
   Miquel Garcia          : C-PCM Hessian, Gaussian charge scheme
   Yang Guo               : DLPNO-NEVPT2, CIM, IAO-localization
   Andreas Hansen         : Spin unrestricted coupled pair/coupled cluster methods
   Benjamin Helmich-Paris : CASSCF linear response (MC-RPA)
   Lee Huntington         : MR-EOM, pCC
   Robert Izsak           : Overlap fitted RIJCOSX, COSX-SCS-MP3, EOM
   Christian Kollmar      : KDIIS, OOCD, Brueckner-CCSD(T), CCSD density
   Simone Kossmann        : Meta GGA functionals, TD-DFT gradient, OOMP2, MP2 Hessian
   Martin Krupicka        : AUTO-CI
   Lucas Lang             : DCDCAS
   Dagmar Lenk            : GEPOL surface, SMD
   Dimitrios Liakos       : Extrapolation schemes; Compound Job, initial MDCI parallelization
   Dimitrios Manganas     : Further ROCIS development; embedding schemes
   Dimitrios Pantazis     : SARC Basis sets
   Taras Petrenko         : DFT Hessian,TD-DFT gradient, ASA, ECA, R-Raman, ABS, FL, XAS/XES, NRVS
   Peter Pinski           : DLPNO-MP2, DLPNO-MP2 Gradient
   Christoph Reimann      : Effective Core Potentials
   Marius Retegan         : Local ZFS, SOC
   Christoph Riplinger    : Optimizer, TS searches, QM/MM, DLPNO-CCSD(T), (RO)-DLPNO pert. Triples
   Tobias Risthaus        : Range-separated hybrids, TD-DFT gradient, RPA, STAB
   Michael Roemelt        : Original ROCIS implementation
   Masaaki Saitow         : Open-shell DLPNO-CCSD energy and density
   Barbara Sandhoefer     : DKH picture change effects
   Avijit Sen             : IP-ROCIS
   Kantharuban Sivalingam : CASSCF convergence, NEVPT2, FIC-MRCI
   Bernardo de Souza      : ESD, SOC TD-DFT
   Georgi Stoychev        : AutoAux, RI-MP2 NMR
   Willem Van den Heuvel  : Paramagnetic NMR
   Boris Wezisla          : Elementary symmetry handling
   Frank Wennmohs         : Technical directorship


 We gratefully acknowledge several colleagues who have allowed us to
 interface, adapt or use parts of their codes:
   Stefan Grimme, W. Hujo, H. Kruse,             : VdW corrections, initial TS optimization,
                  C. Bannwarth                     DFT functionals, gCP, sTDA/sTD-DF
   Ed Valeev, F. Pavosevic, A. Kumar             : LibInt (2-el integral package), F12 methods
   Garnet Chan, S. Sharma, J. Yang, R. Olivares  : DMRG
   Ulf Ekstrom                                   : XCFun DFT Library
   Mihaly Kallay                                 : mrcc  (arbitrary order and MRCC methods)
   Andreas Klamt, Michael Diedenhofen            : otool_cosmo (COSMO solvation model)
   Jiri Pittner, Ondrej Demel                    : Mk-CCSD
   Frank Weinhold                                : gennbo (NPA and NBO analysis)
   Christopher J. Cramer and Donald G. Truhlar   : smd solvation model
   Lars Goerigk                                  : TD-DFT with DH, B97 family of functionals
   V. Asgeirsson, H. Jonsson                     : NEB implementation
   FAccTs GmbH                                   : IRC, NEB, NEB-TS, Multilevel, MM, QM/MM, CI optimization
   S Lehtola, MJT Oliveira, MAL Marques          : LibXC Library


 Your calculation uses the libint2 library for the computation of 2-el integrals
 For citations please refer to: http://libint.valeyev.net

 Your ORCA version has been built with support for libXC version: 4.2.3
 For citations please refer to: https://tddft.org/programs/libxc/

 This ORCA versions uses:
   CBLAS   interface :  Fast vector & matrix operations
   LAPACKE interface :  Fast linear algebra routines
   SCALAPACK package :  Parallel linear algebra routines


Your calculation utilizes the atom-pairwise dispersion correction
with the zero-damping scheme (D30)
Cite in your paper:
S.Grimme, J.Antony, S.Ehrlich and H.Krieg, J.Chem.Phys., 132, (2010), 154104 
   

XCFun DFT library Copyright 2009-2010 Ulf Ekstrom and contributors.
See http://admol.org/xcfun for more information. This is free soft-
ware; see the source code for copying conditions. There is ABSOLUTELY
NO WARRANTY; not even for MERCHANTABILITY or FITNESS FOR A PARTICULAR
PURPOSE. For details see the documentation. Scientific users of this 
library should cite U. Ekstrom, L. Visscher, R. Bast, A. J. Thorvald-
sen and K. Ruud; J.Chem.Theor.Comp. 2010, DOI: 10.1021/ct100117s
XCFun Version 0.99 
----- Orbital basis set information -----
Your calculation utilizes the basis: def2-TZVP
   F. Weigend and R. Ahlrichs, Phys. Chem. Chem. Phys. 7, 3297 (2005).

----- AuxJ basis set information -----
Your calculation utilizes the auxiliary basis: def2/J
   F. Weigend, Phys. Chem. Chem. Phys. 8, 1057 (2006).

================================================================================
                                        WARNINGS
                       Please study these warnings very carefully!
================================================================================


WARNING: Geometry Optimization
  ===> : Switching off AutoStart
         For restart on a previous wavefunction, please use MOREAD

INFO   : the flag for use of LIBINT has been found!

================================================================================
                                       INPUT FILE
================================================================================
NAME = DBU.inp
|  1> # avogadro generated ORCA input file 
|  2> # Basic Mode
|  3> # 
|  4> ! wB97X-D3 OPT def2-TZVP def2/J CPCM
|  5> %cpcm
|  6>   epsilon 3
|  7> end
|  8> %pal
|  9>  nprocs 4
| 10> end
| 11> 
| 12> * xyz 0 1
| 13>    N        5.06909        5.31401        0.59676
| 14>    C        3.68590        5.56525        0.72198
| 15>    N        2.79631        4.65482        0.50541
| 16>    C        5.53570        4.06529        0.03709
| 17>    C        4.62142        2.95788        0.56337
| 18>    C        3.15767        3.27743        0.19274
| 19>    H        3.00397        3.12654       -0.89726
| 20>    H        2.48887        2.57677        0.73550
| 21>    H        6.58563        3.87606        0.34693
| 22>    H        5.48393        4.10800       -1.07284
| 23>    H        4.91562        1.96054        0.17256
| 24>    H        4.71250        2.94107        1.67230
| 25>    C        5.73265        6.58244        0.45091
| 26>    C        4.81456        7.52284        1.23446
| 27>    H        5.73355        6.86149       -0.62653
| 28>    H        6.77001        6.57832        0.84840
| 29>    C        3.40026        7.01045        0.93212
| 30>    H        4.97418        8.61046        1.07886
| 31>    H        5.00759        7.29931        2.30957
| 32>    H        3.00386        7.41437       -0.02407
| 33>    H        2.70963        7.23467        1.77287
| 34> *
| 35> 
| 36> 
| 37>                          ****END OF INPUT****
================================================================================

                       *****************************
                       * Geometry Optimization Run *
                       *****************************

Geometry optimization settings:
Update method            Update   .... BFGS
Choice of coordinates    CoordSys .... Z-matrix Internals
Initial Hessian          InHess   .... Almoef's Model

Convergence Tolerances:
Energy Change            TolE     ....  5.0000e-06 Eh
Max. Gradient            TolMAXG  ....  3.0000e-04 Eh/bohr
RMS Gradient             TolRMSG  ....  1.0000e-04 Eh/bohr
Max. Displacement        TolMAXD  ....  4.0000e-03 bohr
RMS Displacement         TolRMSD  ....  2.0000e-03 bohr
Strict Convergence                ....  False
------------------------------------------------------------------------------
                        ORCA OPTIMIZATION COORDINATE SETUP
------------------------------------------------------------------------------

The optimization will be done in new redundant internal coordinates
Making redundant internal coordinates   ...  (new redundants) done
Evaluating the initial hessian          ...  (Almloef) done
Evaluating the coordinates              ...  done
Calculating the B-matrix                .... done
Calculating the G-matrix                .... done
Diagonalizing the G-matrix              .... done
The first mode is                       ....   71
The number of degrees of freedom        ....   57

    -----------------------------------------------------------------
                    Redundant Internal Coordinates


    -----------------------------------------------------------------
         Definition                    Initial Value    Approx d2E/dq
    -----------------------------------------------------------------
      1. B(C   1,N   0)                  1.4114         0.517312   
      2. B(N   2,C   1)                  1.2912         0.804508   
      3. B(C   3,N   0)                  1.4458         0.455926   
      4. B(C   4,C   3)                  1.5295         0.374322   
      5. B(C   5,C   4)                  1.5434         0.355647   
      6. B(C   5,N   2)                  1.4579         0.436018   
      7. B(H   6,C   5)                  1.1111         0.333270   
      8. B(H   7,C   5)                  1.1103         0.334200   
      9. B(H   8,C   3)                  1.1109         0.333452   
     10. B(H   9,C   3)                  1.1120         0.332194   
     11. B(H  10,C   4)                  1.1108         0.333556   
     12. B(H  11,C   4)                  1.1128         0.331178   
     13. B(C  12,N   0)                  1.4389         0.467544   
     14. B(C  13,C  12)                  1.5301         0.373444   
     15. B(H  14,C  12)                  1.1130         0.330936   
     16. B(H  15,C  12)                  1.1109         0.333469   
     17. B(C  16,C  13)                  1.5343         0.367667   
     18. B(C  16,C   1)                  1.4881         0.435787   
     19. B(H  17,C  13)                  1.1102         0.334310   
     20. B(H  18,C  13)                  1.1149         0.328576   
     21. B(H  19,C  16)                  1.1111         0.333219   
     22. B(H  20,C  16)                  1.1109         0.333483   
     23. A(C   1,N   0,C   3)          120.2905         0.392886   
     24. A(C   1,N   0,C  12)          107.6988         0.394622   
     25. A(C   3,N   0,C  12)          124.9805         0.386008   
     26. A(N   0,C   1,C  16)          111.9334         0.392290   
     27. A(N   0,C   1,N   2)          122.3310         0.434568   
     28. A(N   2,C   1,C  16)          125.1861         0.424170   
     29. A(C   1,N   2,C   5)          122.0978         0.421452   
     30. A(N   0,C   3,H   9)          109.7673         0.328729   
     31. A(N   0,C   3,H   8)          110.1314         0.328935   
     32. A(C   4,C   3,H   9)          110.0871         0.320166   
     33. A(N   0,C   3,C   4)          107.4119         0.373772   
     34. A(C   4,C   3,H   8)          110.2219         0.320364   
     35. A(H   8,C   3,H   9)          109.2043         0.283769   
     36. A(H  10,C   4,H  11)          108.3822         0.283648   
     37. A(C   3,C   4,C   5)          109.5356         0.360437   
     38. A(C   5,C   4,H  11)          108.6666         0.317346   
     39. A(C   5,C   4,H  10)          110.6454         0.317716   
     40. A(C   3,C   4,H  11)          107.7529         0.320006   
     41. A(C   3,C   4,H  10)          111.7586         0.320380   
     42. A(N   2,C   5,H   6)          107.7227         0.326493   
     43. A(N   2,C   5,C   4)          112.2827         0.367662   
     44. A(H   6,C   5,H   7)          108.0915         0.284011   
     45. A(C   4,C   5,H   7)          108.8582         0.317816   
     46. A(C   4,C   5,H   6)          109.7955         0.317671   
     47. A(N   2,C   5,H   7)          110.0019         0.326643   
     48. A(H  14,C  12,H  15)          110.2765         0.283604   
     49. A(C  13,C  12,H  15)          112.2931         0.320244   
     50. A(N   0,C  12,H  15)          113.0218         0.330308   
     51. A(C  13,C  12,H  14)          110.0065         0.319845   
     52. A(N   0,C  12,H  14)          108.6333         0.329892   
     53. A(N   0,C  12,C  13)          102.3084         0.375246   
     54. A(H  17,C  13,H  18)          107.8579         0.283400   
     55. A(C  16,C  13,H  18)          106.4180         0.318659   
     56. A(C  12,C  13,H  18)          105.4678         0.319471   
     57. A(C  16,C  13,H  17)          115.5981         0.319561   
     58. A(C  12,C  13,H  17)          116.3626         0.320376   
     59. A(C  12,C  13,C  16)          104.2957         0.362342   
     60. A(C  13,C  16,H  20)          110.8862         0.319431   
     61. A(C   1,C  16,H  20)          114.9755         0.328469   
     62. A(C  13,C  16,H  19)          112.1493         0.319390   
     63. A(C   1,C  16,H  19)          107.4581         0.328426   
     64. A(H  19,C  16,H  20)          110.8626         0.283909   
     65. A(C   1,C  16,C  13)          100.0914         0.372062   
     66. D(C  16,C   1,N   0,C   3)   -163.2606         0.021208   
     67. D(N   2,C   1,N   0,C  12)    160.6907         0.021208   
     68. D(C  16,C   1,N   0,C  12)    -11.2135         0.021208   
     69. D(N   2,C   1,N   0,C   3)      8.6437         0.021208   
     70. D(C   5,N   2,C   1,C  16)    174.5393         0.049951   
     71. D(C   5,N   2,C   1,N   0)      3.7368         0.049951   
     72. D(C   4,C   3,N   0,C   1)    -39.2085         0.017739   
     73. D(H   8,C   3,N   0,C  12)     53.7654         0.017739   
     74. D(H   9,C   3,N   0,C   1)     80.4734         0.017739   
     75. D(H   8,C   3,N   0,C   1)   -159.2606         0.017739   
     76. D(H   9,C   3,N   0,C  12)    -66.5006         0.017739   
     77. D(C   4,C   3,N   0,C  12)    173.8175         0.017739   
     78. D(C   5,C   4,C   3,H   9)    -62.6487         0.011186   
     79. D(C   5,C   4,C   3,H   8)    176.8235         0.011186   
     80. D(H  11,C   4,C   3,H   9)    179.3047         0.011186   
     81. D(H  11,C   4,C   3,H   8)     58.7769         0.011186   
     82. D(H  11,C   4,C   3,N   0)    -61.2177         0.011186   
     83. D(H  10,C   4,C   3,H   9)     60.3376         0.011186   
     84. D(H  10,C   4,C   3,H   8)    -60.1902         0.011186   
     85. D(H  10,C   4,C   3,N   0)    179.8152         0.011186   
     86. D(C   5,C   4,C   3,N   0)     56.8289         0.011186   
     87. D(N   2,C   5,C   4,H  10)   -171.1667         0.010166   
     88. D(H   6,C   5,C   4,C   3)     72.2869         0.010166   
     89. D(H   6,C   5,C   4,H  11)   -170.2375         0.010166   
     90. D(H   7,C   5,C   4,C   3)   -169.5685         0.010166   
     91. D(H   6,C   5,C   4,H  10)    -51.3564         0.010166   
     92. D(N   2,C   5,C   4,C   3)    -47.5233         0.010166   
     93. D(H   7,C   5,N   2,C   1)    138.5013         0.014972   
     94. D(N   2,C   5,C   4,H  11)     69.9522         0.010166   
     95. D(H   6,C   5,N   2,C   1)   -103.9009         0.014972   
     96. D(C   4,C   5,N   2,C   1)     17.1089         0.014972   
     97. D(H   7,C   5,C   4,H  11)    -52.0929         0.010166   
     98. D(H   7,C   5,C   4,H  10)     66.7882         0.010166   
     99. D(H  15,C  12,N   0,C   1)    150.7708         0.018673   
    100. D(H  14,C  12,N   0,C   3)     63.8950         0.018673   
    101. D(H  14,C  12,N   0,C   1)    -86.5016         0.018673   
    102. D(C  13,C  12,N   0,C   3)   -179.8021         0.018673   
    103. D(H  15,C  12,N   0,C   3)    -58.8326         0.018673   
    104. D(C  13,C  12,N   0,C   1)     29.8013         0.018673   
    105. D(H  18,C  13,C  12,H  15)    -46.9616         0.011136   
    106. D(H  18,C  13,C  12,N   0)     74.5097         0.011136   
    107. D(H  17,C  13,C  12,H  15)     72.5271         0.011136   
    108. D(H  17,C  13,C  12,H  14)    -50.6943         0.011136   
    109. D(H  17,C  13,C  12,N   0)   -166.0015         0.011136   
    110. D(C  16,C  13,C  12,H  15)   -158.8716         0.011136   
    111. D(H  18,C  13,C  12,H  14)   -170.1831         0.011136   
    112. D(C  16,C  13,C  12,H  14)     77.9069         0.011136   
    113. D(C  16,C  13,C  12,N   0)    -37.4003         0.011136   
    114. D(H  20,C  16,C  13,H  17)    -79.3091         0.010815   
    115. D(H  20,C  16,C  13,C  12)    151.6269         0.010815   
    116. D(H  19,C  16,C  13,H  18)    164.9361         0.010815   
    117. D(H  19,C  16,C  13,C  12)    -83.8406         0.010815   
    118. D(C   1,C  16,C  13,H  18)    -81.3953         0.010815   
    119. D(C   1,C  16,C  13,H  17)    158.8921         0.010815   
    120. D(C   1,C  16,C  13,C  12)     29.8280         0.010815   
    121. D(H  20,C  16,C   1,N   2)     57.1043         0.014018   
    122. D(H  20,C  16,C   1,N   0)   -131.2676         0.014018   
    123. D(H  19,C  16,C  13,H  17)     45.2235         0.010815   
    124. D(H  19,C  16,C   1,N   2)    -66.8356         0.014018   
    125. D(H  19,C  16,C   1,N   0)    104.7925         0.014018   
    126. D(C  13,C  16,C   1,N   2)    175.9444         0.014018   
    127. D(H  20,C  16,C  13,H  18)     40.4036         0.010815   
    128. D(C  13,C  16,C   1,N   0)    -12.4275         0.014018   
    -----------------------------------------------------------------

Number of atoms                         .... 21
Number of degrees of freedom            .... 128

         *************************************************************
         *                GEOMETRY OPTIMIZATION CYCLE   1            *
         *************************************************************
---------------------------------
CARTESIAN COORDINATES (ANGSTROEM)
---------------------------------
  N      5.069090    5.314010    0.596760
  C      3.685900    5.565250    0.721980
  N      2.796310    4.654820    0.505410
  C      5.535700    4.065290    0.037090
  C      4.621420    2.957880    0.563370
  C      3.157670    3.277430    0.192740
  H      3.003970    3.126540   -0.897260
  H      2.488870    2.576770    0.735500
  H      6.585630    3.876060    0.346930
  H      5.483930    4.108000   -1.072840
  H      4.915620    1.960540    0.172560
  H      4.712500    2.941070    1.672300
  C      5.732650    6.582440    0.450910
  C      4.814560    7.522840    1.234460
  H      5.733550    6.861490   -0.626530
  H      6.770010    6.578320    0.848400
  C      3.400260    7.010450    0.932120
  H      4.974180    8.610460    1.078860
  H      5.007590    7.299310    2.309570
  H      3.003860    7.414370   -0.024070
  H      2.709630    7.234670    1.772870

----------------------------
CARTESIAN COORDINATES (A.U.)
----------------------------
  NO LB      ZA    FRAG     MASS         X           Y           Z
   0 N     7.0000    0    14.007    9.579192   10.042024    1.127713
   1 C     6.0000    0    12.011    6.965342   10.516798    1.364344
   2 N     7.0000    0    14.007    5.284260    8.796335    0.955086
   3 C     6.0000    0    12.011   10.460957    7.682285    0.070090
   4 C     6.0000    0    12.011    8.733218    5.589583    1.064615
   5 C     6.0000    0    12.011    5.967132    6.193445    0.364226
   6 H     1.0000    0     1.008    5.676681    5.908304   -1.695576
   7 H     1.0000    0     1.008    4.703283    4.869390    1.389894
   8 H     1.0000    0     1.008   12.445037    7.324692    0.655603
   9 H     1.0000    0     1.008   10.363126    7.762995   -2.027374
  10 H     1.0000    0     1.008    9.289176    3.704884    0.326091
  11 H     1.0000    0     1.008    8.905334    5.557817    3.160189
  12 C     6.0000    0    12.011   10.833139   12.439009    0.852096
  13 C     6.0000    0    12.011    9.098200   14.216107    2.332791
  14 H     1.0000    0     1.008   10.834839   12.966337   -1.183970
  15 H     1.0000    0     1.008   12.793465   12.431223    1.603244
  16 C     6.0000    0    12.011    6.425560   13.247831    1.761452
  17 H     1.0000    0     1.008    9.399838   16.271411    2.038750
  18 H     1.0000    0     1.008    9.462974   13.793697    4.364455
  19 H     1.0000    0     1.008    5.676473   14.011129   -0.045486
  20 H     1.0000    0     1.008    5.120459   13.671545    3.350239

--------------------------------
INTERNAL COORDINATES (ANGSTROEM)
--------------------------------
 N      0   0   0     0.000000000000     0.00000000     0.00000000
 C      1   0   0     1.411388026767     0.00000000     0.00000000
 N      2   1   0     1.291183843571   122.33101040     0.00000000
 C      1   2   3     1.445772125682   120.29053744     8.64372362
 C      4   1   2     1.529455937548   107.41187498   320.79154364
 C      3   2   1     1.457925509277   122.09779733     3.73684405
 H      6   3   2     1.111076721968   107.72266800   256.09910282
 H      6   3   2     1.110318104509   110.00191500   138.50128980
 H      4   1   2     1.110928361057   110.13138772   200.73940253
 H      4   1   2     1.111957230248   109.76734232    80.47341739
 H      5   4   1     1.110843450582   111.75855765   179.81519755
 H      5   4   1     1.112791034921   107.75290900   298.78232411
 C      1   2   3     1.438922777984   107.69876716   160.69073973
 C     13   1   2     1.530095425325   102.30842508    29.80133722
 H     13   1   2     1.112989966756   108.63328835   273.49843496
 H     13   1   2     1.110914508007   113.02177440   150.77082741
 C      2   1   3     1.488069914083   111.93336953   188.09572347
 H     14  13   1     1.110228430910   116.36255853   193.99845378
 H     14  13   1     1.114938452965   105.46784487    74.50972358
 H     17   2   1     1.111118194658   107.45806252   104.79249830
 H     17   2   1     1.110902771533   114.97548261   228.73237973

---------------------------
INTERNAL COORDINATES (A.U.)
---------------------------
 N      0   0   0     0.000000000000     0.00000000     0.00000000
 C      1   0   0     2.667136839284     0.00000000     0.00000000
 N      2   1   0     2.439983852894   122.33101040     0.00000000
 C      1   2   3     2.732113369597   120.29053744     8.64372362
 C      4   1   2     2.890252855865   107.41187498   320.79154364
 C      3   2   1     2.755079936191   122.09779733     3.73684405
 H      6   3   2     2.099630718295   107.72266800   256.09910282
 H      6   3   2     2.098197139056   110.00191500   138.50128980
 H      4   1   2     2.099350356803   110.13138772   200.73940253
 H      4   1   2     2.101294637802   109.76734232    80.47341739
 H      5   4   1     2.099189899259   111.75855765   179.81519755
 H      5   4   1     2.102870300283   107.75290900   298.78232411
 C      1   2   3     2.719169978250   107.69876716   160.69073973
 C     13   1   2     2.891461312630   102.30842508    29.80133722
 H     13   1   2     2.103246226971   108.63328835   273.49843496
 H     13   1   2     2.099324178333   113.02177440   150.77082741
 C      2   1   3     2.812044605745   111.93336953   188.09572347
 H     14  13   1     2.098027680512   116.36255853   193.99845378
 H     14  13   1     2.106928332282   105.46784487    74.50972358
 H     17   2   1     2.099709090321   107.45806252   104.79249830
 H     17   2   1     2.099301999612   114.97548261   228.73237973

---------------------
BASIS SET INFORMATION
---------------------
There are 3 groups of distinct atoms

 Group   1 Type N   : 11s6p2d1f contracted to 5s3p2d1f pattern {62111/411/11/1}
 Group   2 Type C   : 11s6p2d1f contracted to 5s3p2d1f pattern {62111/411/11/1}
 Group   3 Type H   : 5s1p contracted to 3s1p pattern {311/1}

Atom   0N    basis set group =>   1
Atom   1C    basis set group =>   2
Atom   2N    basis set group =>   1
Atom   3C    basis set group =>   2
Atom   4C    basis set group =>   2
Atom   5C    basis set group =>   2
Atom   6H    basis set group =>   3
Atom   7H    basis set group =>   3
Atom   8H    basis set group =>   3
Atom   9H    basis set group =>   3
Atom  10H    basis set group =>   3
Atom  11H    basis set group =>   3
Atom  12C    basis set group =>   2
Atom  13C    basis set group =>   2
Atom  14H    basis set group =>   3
Atom  15H    basis set group =>   3
Atom  16C    basis set group =>   2
Atom  17H    basis set group =>   3
Atom  18H    basis set group =>   3
Atom  19H    basis set group =>   3
Atom  20H    basis set group =>   3
---------------------------------
AUXILIARY/J BASIS SET INFORMATION
---------------------------------
There are 3 groups of distinct atoms

 Group   1 Type N   : 12s5p4d2f1g contracted to 6s4p3d1f1g pattern {711111/2111/211/2/1}
 Group   2 Type C   : 12s5p4d2f1g contracted to 6s4p3d1f1g pattern {711111/2111/211/2/1}
 Group   3 Type H   : 5s2p1d contracted to 3s1p1d pattern {311/2/1}

Atom   0N    basis set group =>   1
Atom   1C    basis set group =>   2
Atom   2N    basis set group =>   1
Atom   3C    basis set group =>   2
Atom   4C    basis set group =>   2
Atom   5C    basis set group =>   2
Atom   6H    basis set group =>   3
Atom   7H    basis set group =>   3
Atom   8H    basis set group =>   3
Atom   9H    basis set group =>   3
Atom  10H    basis set group =>   3
Atom  11H    basis set group =>   3
Atom  12C    basis set group =>   2
Atom  13C    basis set group =>   2
Atom  14H    basis set group =>   3
Atom  15H    basis set group =>   3
Atom  16C    basis set group =>   2
Atom  17H    basis set group =>   3
Atom  18H    basis set group =>   3
Atom  19H    basis set group =>   3
Atom  20H    basis set group =>   3
--------------------------------------------------------------------------
[[60099,1],0]: A high-performance Open MPI point-to-point messaging module
was unable to find any relevant network interfaces:

Module: OpenFabrics (openib)
  Host: compute-1-11

Another transport will be used instead, although this may result in
lower performance.

NOTE: You can disable this warning by setting the MCA parameter
btl_base_warn_component_unused to 0.
--------------------------------------------------------------------------


           ************************************************************
           *        Program running with 4 parallel MPI-processes     *
           *              working on a common directory               *
           ************************************************************
------------------------------------------------------------------------------
                           ORCA GTO INTEGRAL CALCULATION
------------------------------------------------------------------------------

                         BASIS SET STATISTICS AND STARTUP INFO

 # of primitive gaussian shells          ...  252
 # of primitive gaussian functions       ...  510
 # of contracted shells                  ...  147
 # of contracted basis functions         ...  351
 Highest angular momentum                ...    3
 Maximum contraction depth               ...    6
 Integral package used                   ... LIBINT
 Integral threshhold            Thresh   ...  2.500e-11
 Primitive cut-off              TCut     ...  2.500e-12


------------------------------ INTEGRAL EVALUATION ----------------------------


 * One electron integrals 
 Pre-screening matrix                    ... done
 Shell pair data                         ... done (   0.004 sec)

[compute-1-11.local:24573] 3 more processes have sent help message help-mpi-btl-base.txt / btl:no-nics
[compute-1-11.local:24573] Set MCA parameter "orte_base_help_aggregate" to 0 to see all help / error messages
--------------------------------------------------------------------------
[[54572,1],0]: A high-performance Open MPI point-to-point messaging module
was unable to find any relevant network interfaces:

Module: OpenFabrics (openib)
  Host: compute-1-11

Another transport will be used instead, although this may result in
lower performance.

NOTE: You can disable this warning by setting the MCA parameter
btl_base_warn_component_unused to 0.
--------------------------------------------------------------------------


           ************************************************************
           *        Program running with 4 parallel MPI-processes     *
           *              working on a common directory               *
           ************************************************************
-------------------------------------------------------------------------------
                                 ORCA SCF
-------------------------------------------------------------------------------

------------
SCF SETTINGS
------------
Hamiltonian:
 Density Functional     Method          .... DFT(GTOs)
 Exchange Functional    Exchange        .... WB97X-D3
 Correlation Functional Correlation     .... WB97X-D3
 Gradients option       PostSCFGGA      .... off
 Hybrid DFT is turned on
   Fraction HF Exchange ScalHFX         ....  0.195728
   Scaling of DF-GGA-X  ScalDFX         ....  0.000000
   Scaling of DF-GGA-C  ScalDFC         ....  1.000000
   Scaling of DF-LDA-C  ScalLDAC        ....  1.000000
   Perturbative correction              ....  0.000000
   Density functional embedding theory  .... OFF
 Long-range corrected/Screened/Range-Separated Hybrid DFT is turned on
   Amount of maximum screened exact exchange              ....  0.804272
   Range separation parameter mu (erf(mu*r12)/r12)        ....  0.250000


General Settings:
 Integral files         IntName         .... DBU
 Hartree-Fock type      HFTyp           .... RHF
 Total Charge           Charge          ....    0
 Multiplicity           Mult            ....    1
 Number of Electrons    NEL             ....   68
 Basis Dimension        Dim             ....  351
 Nuclear Repulsion      ENuc            ....    472.1937607570 Eh

Convergence Acceleration:
 DIIS                   CNVDIIS         .... on
   Start iteration      DIISMaxIt       ....    12
   Startup error        DIISStart       ....  0.200000
   # of expansion vecs  DIISMaxEq       ....     5
   Bias factor          DIISBfac        ....   1.050
   Max. coefficient     DIISMaxC        ....  10.000
 Newton-Raphson         CNVNR           .... off
 SOSCF                  CNVSOSCF        .... on
   Start iteration      SOSCFMaxIt      ....   150
   Startup grad/error   SOSCFStart      ....  0.003300
 Level Shifting         CNVShift        .... on
   Level shift para.    LevelShift      ....    0.2500
   Turn off err/grad.   ShiftErr        ....    0.0010
 Zerner damping         CNVZerner       .... off
 Static damping         CNVDamp         .... on
   Fraction old density DampFac         ....    0.7000
   Max. Damping (<1)    DampMax         ....    0.9800
   Min. Damping (>=0)   DampMin         ....    0.0000
   Turn off err/grad.   DampErr         ....    0.1000
 Fernandez-Rico         CNVRico         .... off

SCF Procedure:
 Maximum # iterations   MaxIter         ....   125
 SCF integral mode      SCFMode         .... Direct
   Integral package                     .... LIBINT
 Reset frequency        DirectResetFreq ....    20
 Integral Threshold     Thresh          ....  2.500e-11 Eh
 Primitive CutOff       TCut            ....  2.500e-12 Eh

Convergence Tolerance:
 Convergence Check Mode ConvCheckMode   .... Total+1el-Energy
 Convergence forced     ConvForced      .... 0
 Energy Change          TolE            ....  1.000e-08 Eh
 1-El. energy change                    ....  1.000e-05 Eh
 Orbital Gradient       TolG            ....  1.000e-05
 Orbital Rotation angle TolX            ....  1.000e-05
 DIIS Error             TolErr          ....  5.000e-07


Diagonalization of the overlap matrix:
Smallest eigenvalue                        ... 8.182e-05
Time for diagonalization                   ...    0.082 sec
Threshold for overlap eigenvalues          ... 1.000e-08
Number of eigenvalues below threshold      ... 0
Time for construction of square roots      ...    0.026 sec
Total time needed                          ...    0.109 sec

-------------------
DFT GRID GENERATION
-------------------

General Integration Accuracy     IntAcc      ...  4.340
Radial Grid Type                 RadialGrid  ... Gauss-Chebyshev
Angular Grid (max. acc.)         AngularGrid ... Lebedev-110
Angular grid pruning method      GridPruning ... 3 (G Style)
Weight generation scheme         WeightScheme... Becke
Basis function cutoff            BFCut       ...    1.0000e-11
Integration weight cutoff        WCut        ...    1.0000e-14
Grids for H and He will be reduced by one unit

# of grid points (after initial pruning)     ...  24524 (   0.0 sec)
# of grid points (after weights+screening)   ...  22253 (   0.1 sec)
nearest neighbour list constructed           ...    0.0 sec
Grid point re-assignment to atoms done       ...    0.0 sec
Grid point division into batches done        ...    0.0 sec
Reduced shell lists constructed in    0.1 sec

Total number of grid points                  ...    22253
Total number of batches                      ...      358
Average number of points per batch           ...       62
Average number of grid points per atom       ...     1060
Average number of shells per batch           ...   118.54 (80.64%)
Average number of basis functions per batch  ...   300.38 (85.58%)
Average number of large shells per batch     ...    97.04 (81.87%)
Average number of large basis fcns per batch ...   245.68 (81.79%)
Maximum spatial batch extension              ...  16.22,  4.14, 11.14 au
Average spatial batch extension              ...   0.47,  0.44,  0.48 au

Time for grid setup =    0.220 sec

------------------------------
INITIAL GUESS: MODEL POTENTIAL
------------------------------
Loading Hartree-Fock densities                     ... done
Calculating cut-offs                               ... done
Setting up the integral package                    ... done
Initializing the effective Hamiltonian             ... done
Starting the Coulomb interaction                   ... done (   0.2 sec)
Reading the grid                                   ... done
Mapping shells                                     ... done
Starting the XC term evaluation                    ... done (   0.3 sec)
  promolecular density results
     # of electrons  =     67.997875290
     EX              =    -52.437005773
     EC              =     -2.267953892
     EX+EC           =    -54.704959665
Transforming the Hamiltonian                       ... done (   0.0 sec)
Diagonalizing the Hamiltonian                      ... done (   0.0 sec)
Back transforming the eigenvectors                 ... done (   0.0 sec)
Now organizing SCF variables                       ... done
                      ------------------
                      INITIAL GUESS DONE (   0.9 sec)
                      ------------------

--------------------
CPCM SOLVATION MODEL
--------------------
CPCM parameters:
  Epsilon                                         ...       3.0000
  Refrac                                          ...       1.3300
  Rsolv                                           ...       1.3000
  Surface type                                    ...    GEPOL SES
  Epsilon function type                           ...         CPCM
Radii:
 Radius for N  used is    3.4582 Bohr (=   1.8300 Ang.)
 Radius for C  used is    3.7795 Bohr (=   2.0000 Ang.)
 Radius for H  used is    2.4566 Bohr (=   1.3000 Ang.)
Calculating surface                               ...        done! (  0.1s)
GEPOL surface points                              ...          674
GEPOL Volume                                      ...    1080.3803
GEPOL Surface-area                                ...     602.1007
Calculating surface distance matrix               ...        done! (  0.0s)
Performing Cholesky decomposition & store         ...        done! (  0.0s)
Overall time for CPCM initialization              ...                 0.1s
--------------
SCF ITERATIONS
--------------
ITER       Energy         Delta-E        Max-DP      RMS-DP      [F,P]     Damp
               ***  Starting incremental Fock matrix formation  ***
[compute-1-11.local:24594] 3 more processes have sent help message help-mpi-btl-base.txt / btl:no-nics
[compute-1-11.local:24594] Set MCA parameter "orte_base_help_aggregate" to 0 to see all help / error messages
  0   -383.2666996520   0.000000000000 0.04220018  0.00076379  0.2303137 0.7000
  1   -383.3606505198  -0.093950867794 0.03821509  0.00065551  0.1247666 0.7000
                               ***Turning on DIIS***
  2   -383.4085344460  -0.047883926264 0.07426147  0.00137670  0.0555014 0.0000
  3   -383.4862083104  -0.077673864411 0.02301721  0.00039955  0.0559966 0.0000
  4   -383.4982421299  -0.012033819485 0.00393328  0.00011083  0.0055990 0.0000
  5   -383.4985748420  -0.000332712032 0.00226081  0.00005098  0.0046786 0.0000
                      *** Initiating the SOSCF procedure ***
                           *** Shutting down DIIS ***
                      *** Re-Reading the Fockian *** 
                      *** Removing any level shift *** 
ITER      Energy       Delta-E        Grad      Rot      Max-DP    RMS-DP
  6   -383.49864355  -0.0000687032  0.001071  0.001071  0.001721  0.000046
               *** Restarting incremental Fock matrix formation ***
  7   -383.49866050  -0.0000169521  0.000202  0.000517  0.000572  0.000014
  8   -383.49866192  -0.0000014257  0.000389  0.000835  0.000375  0.000008
  9   -383.49866352  -0.0000015983  0.000060  0.000237  0.000190  0.000003
 10   -383.49866357  -0.0000000504  0.000018  0.000069  0.000048  0.000001
 11   -383.49866359  -0.0000000159  0.000006  0.000021  0.000027  0.000000
                  ***Gradient check signals convergence***
              ***Rediagonalizing the Fockian in SOSCF/NRSCF***

               *****************************************************
               *                     SUCCESS                       *
               *           SCF CONVERGED AFTER  12 CYCLES          *
               *****************************************************

Setting up the final grid:

General Integration Accuracy     IntAcc      ...  4.670
Radial Grid Type                 RadialGrid  ... Gauss-Chebyshev
Angular Grid (max. acc.)         AngularGrid ... Lebedev-302
Angular grid pruning method      GridPruning ... 3 (G Style)
Weight generation scheme         WeightScheme... Becke
Basis function cutoff            BFCut       ...    1.0000e-11
Integration weight cutoff        WCut        ...    1.0000e-14
Grids for H and He will be reduced by one unit

# of grid points (after initial pruning)     ...  96636 (   0.0 sec)
# of grid points (after weights+screening)   ...  86327 (   0.2 sec)
nearest neighbour list constructed           ...    0.0 sec
Grid point re-assignment to atoms done       ...    0.0 sec
Grid point division into batches done        ...    0.4 sec
Reduced shell lists constructed in    0.8 sec

Total number of grid points                  ...    86327
Total number of batches                      ...     1359
Average number of points per batch           ...       63
Average number of grid points per atom       ...     4111
Average number of shells per batch           ...   114.33 (77.78%)
Average number of basis functions per batch  ...   289.65 (82.52%)
Average number of large shells per batch     ...    91.99 (80.46%)
Average number of large basis fcns per batch ...   231.16 (79.81%)
Maximum spatial batch extension              ...  13.44,  4.09, 11.42 au
Average spatial batch extension              ...   0.29,  0.28,  0.29 au

Final grid set up in    1.0 sec
Final integration                            ... done (   1.3 sec)
Change in XC energy                          ...     0.002731275
Integrated number of electrons               ...    68.000142090
Previous integrated no of electrons          ...    68.002323669

----------------
TOTAL SCF ENERGY
----------------

Total Energy       :         -383.49593231 Eh          -10435.45485 eV

Components:
Nuclear Repulsion  :          472.19376076 Eh           12849.04546 eV
Electronic Energy  :         -855.68969307 Eh          -23284.50031 eV
One Electron Energy:        -1453.85219135 Eh          -39561.32939 eV
Two Electron Energy:          598.16249828 Eh           16276.82908 eV
CPCM Dielectric    :           -0.00833659 Eh              -0.22685 eV

Virial components:
Potential Energy   :         -764.80060446 Eh          -20811.28247 eV
Kinetic Energy     :          381.30467214 Eh           10375.82763 eV
Virial Ratio       :            2.00574674


DFT components:
N(Alpha)           :       34.000071044920 electrons
N(Beta)            :       34.000071044920 electrons
N(Total)           :       68.000142089840 electrons
E(XC)              :      -38.477274327608 Eh       
DFET-embed. en.    :        0.000000000000 Eh       
CPCM Solvation Model Properties:
Surface-charge          :           -0.03199280
Charge-correction       :           -0.00040266 Eh              -0.01096 eV
Free-energy (cav+disp)  :            0.00392255 Eh               0.10674 eV
Corrected G(solv)       :         -383.49241242 Eh          -10435.35907 eV

---------------
SCF CONVERGENCE
---------------

  Last Energy change         ...   -6.0425e-10  Tolerance :   1.0000e-08
  Last MAX-Density change    ...    1.0804e-05  Tolerance :   1.0000e-07
  Last RMS-Density change    ...    1.4407e-07  Tolerance :   5.0000e-09
  Last Orbital Gradient      ...    1.5656e-06  Tolerance :   1.0000e-05
  Last Orbital Rotation      ...    3.5137e-06  Tolerance :   1.0000e-05

             **** THE GBW FILE WAS UPDATED (DBU.gbw) ****
             **** DENSITY FILE WAS UPDATED (DBU.scfp) ****
             **** ENERGY FILE WAS UPDATED (DBU.en.tmp) ****
             **** THE GBW FILE WAS UPDATED (DBU.gbw) ****
             **** DENSITY FILE WAS UPDATED (DBU.scfp) ****
----------------
ORBITAL ENERGIES
----------------

  NO   OCC          E(Eh)            E(eV) 
   0   2.0000     -14.430976      -392.6868 
   1   2.0000     -14.377000      -391.2181 
   2   2.0000     -10.338997      -281.3384 
   3   2.0000     -10.307752      -280.4882 
   4   2.0000     -10.305329      -280.4223 
   5   2.0000     -10.291283      -280.0400 
   6   2.0000     -10.280948      -279.7588 
   7   2.0000     -10.279291      -279.7137 
   8   2.0000     -10.272030      -279.5162 
   9   2.0000      -1.091674       -29.7060 
  10   2.0000      -0.989484       -26.9252 
  11   2.0000      -0.931685       -25.3525 
  12   2.0000      -0.861309       -23.4374 
  13   2.0000      -0.827264       -22.5110 
  14   2.0000      -0.760372       -20.6908 
  15   2.0000      -0.717460       -19.5231 
  16   2.0000      -0.705583       -19.1999 
  17   2.0000      -0.624848       -17.0030 
  18   2.0000      -0.605848       -16.4860 
  19   2.0000      -0.576613       -15.6904 
  20   2.0000      -0.558831       -15.2066 
  21   2.0000      -0.551287       -15.0013 
  22   2.0000      -0.529672       -14.4131 
  23   2.0000      -0.509634       -13.8679 
  24   2.0000      -0.499255       -13.5854 
  25   2.0000      -0.480124       -13.0648 
  26   2.0000      -0.462002       -12.5717 
  27   2.0000      -0.455864       -12.4047 
  28   2.0000      -0.451318       -12.2810 
  29   2.0000      -0.428458       -11.6589 
  30   2.0000      -0.425253       -11.5717 
  31   2.0000      -0.387078       -10.5329 
  32   2.0000      -0.326002        -8.8710 
  33   2.0000      -0.294901        -8.0247 
  34   0.0000       0.095318         2.5937 
  35   0.0000       0.116767         3.1774 
  36   0.0000       0.134191         3.6515 
  37   0.0000       0.145734         3.9656 
  38   0.0000       0.154875         4.2144 
  39   0.0000       0.169193         4.6040 
  40   0.0000       0.176133         4.7928 
  41   0.0000       0.179433         4.8826 
  42   0.0000       0.191279         5.2050 
  43   0.0000       0.204206         5.5567 
  44   0.0000       0.205447         5.5905 
  45   0.0000       0.215723         5.8701 
  46   0.0000       0.218990         5.9590 
  47   0.0000       0.226571         6.1653 
  48   0.0000       0.240177         6.5356 
  49   0.0000       0.243320         6.6211 
  50   0.0000       0.248429         6.7601 
  51   0.0000       0.258141         7.0244 
  52   0.0000       0.273154         7.4329 
  53   0.0000       0.285771         7.7762 
  54   0.0000       0.289230         7.8703 
  55   0.0000       0.293715         7.9924 
  56   0.0000       0.309832         8.4309 
  57   0.0000       0.317249         8.6328 
  58   0.0000       0.336129         9.1465 
  59   0.0000       0.357277         9.7220 
  60   0.0000       0.366351         9.9689 
  61   0.0000       0.379023        10.3137 
  62   0.0000       0.381931        10.3929 
  63   0.0000       0.393324        10.7029 
  64   0.0000       0.409611        11.1461 
  65   0.0000       0.426221        11.5981 
  66   0.0000       0.442342        12.0367 
  67   0.0000       0.454295        12.3620 
  68   0.0000       0.462676        12.5901 
  69   0.0000       0.474947        12.9240 
  70   0.0000       0.486295        13.2328 
  71   0.0000       0.492530        13.4024 
  72   0.0000       0.498153        13.5554 
  73   0.0000       0.504473        13.7274 
  74   0.0000       0.507572        13.8117 
  75   0.0000       0.513185        13.9645 
  76   0.0000       0.515971        14.0403 
  77   0.0000       0.525276        14.2935 
  78   0.0000       0.526787        14.3346 
  79   0.0000       0.533836        14.5264 
  80   0.0000       0.538737        14.6598 
  81   0.0000       0.541841        14.7443 
  82   0.0000       0.542912        14.7734 
  83   0.0000       0.551492        15.0069 
  84   0.0000       0.552038        15.0217 
  85   0.0000       0.568544        15.4709 
  86   0.0000       0.572142        15.5688 
  87   0.0000       0.597655        16.2630 
  88   0.0000       0.599636        16.3169 
  89   0.0000       0.607002        16.5174 
  90   0.0000       0.620265        16.8783 
  91   0.0000       0.627521        17.0757 
  92   0.0000       0.652288        17.7496 
  93   0.0000       0.679888        18.5007 
  94   0.0000       0.706139        19.2150 
  95   0.0000       0.715818        19.4784 
  96   0.0000       0.739693        20.1281 
  97   0.0000       0.746689        20.3185 
  98   0.0000       0.770837        20.9755 
  99   0.0000       0.790451        21.5093 
 100   0.0000       0.796046        21.6615 
 101   0.0000       0.812646        22.1132 
 102   0.0000       0.830233        22.5918 
 103   0.0000       0.843096        22.9418 
 104   0.0000       0.844452        22.9787 
 105   0.0000       0.877263        23.8715 
 106   0.0000       0.903812        24.5940 
 107   0.0000       0.919086        25.0096 
 108   0.0000       0.928738        25.2722 
 109   0.0000       0.931638        25.3511 
 110   0.0000       0.965459        26.2715 
 111   0.0000       0.980907        26.6918 
 112   0.0000       0.992660        27.0116 
 113   0.0000       1.003178        27.2979 
 114   0.0000       1.005476        27.3604 
 115   0.0000       1.028004        27.9734 
 116   0.0000       1.054063        28.6825 
 117   0.0000       1.073903        29.2224 
 118   0.0000       1.109807        30.1994 
 119   0.0000       1.125187        30.6179 
 120   0.0000       1.138316        30.9751 
 121   0.0000       1.151173        31.3250 
 122   0.0000       1.165134        31.7049 
 123   0.0000       1.177500        32.0414 
 124   0.0000       1.191266        32.4160 
 125   0.0000       1.208210        32.8771 
 126   0.0000       1.212421        32.9917 
 127   0.0000       1.235222        33.6121 
 128   0.0000       1.252329        34.0776 
 129   0.0000       1.259751        34.2796 
 130   0.0000       1.285054        34.9681 
 131   0.0000       1.302086        35.4316 
 132   0.0000       1.311708        35.6934 
 133   0.0000       1.329801        36.1857 
 134   0.0000       1.357547        36.9407 
 135   0.0000       1.385284        37.6955 
 136   0.0000       1.412763        38.4432 
 137   0.0000       1.419741        38.6331 
 138   0.0000       1.474015        40.1100 
 139   0.0000       1.504323        40.9347 
 140   0.0000       1.513556        41.1860 
 141   0.0000       1.555735        42.3337 
 142   0.0000       1.572673        42.7946 
 143   0.0000       1.595778        43.4233 
 144   0.0000       1.602744        43.6129 
 145   0.0000       1.610457        43.8228 
 146   0.0000       1.630558        44.3697 
 147   0.0000       1.640337        44.6358 
 148   0.0000       1.655793        45.0564 
 149   0.0000       1.661590        45.2142 
 150   0.0000       1.675020        45.5796 
 151   0.0000       1.692636        46.0590 
 152   0.0000       1.698036        46.2059 
 153   0.0000       1.703754        46.3615 
 154   0.0000       1.711679        46.5772 
 155   0.0000       1.728142        47.0251 
 156   0.0000       1.731735        47.1229 
 157   0.0000       1.748652        47.5832 
 158   0.0000       1.767763        48.1033 
 159   0.0000       1.784753        48.5656 
 160   0.0000       1.793948        48.8158 
 161   0.0000       1.839983        50.0685 
 162   0.0000       1.848082        50.2889 
 163   0.0000       1.861998        50.6675 
 164   0.0000       1.866676        50.7948 
 165   0.0000       1.899411        51.6856 
 166   0.0000       1.904665        51.8286 
 167   0.0000       1.910285        51.9815 
 168   0.0000       1.933015        52.6000 
 169   0.0000       1.949438        53.0469 
 170   0.0000       1.971468        53.6464 
 171   0.0000       1.984136        53.9911 
 172   0.0000       2.025936        55.1285 
 173   0.0000       2.043534        55.6074 
 174   0.0000       2.090199        56.8772 
 175   0.0000       2.098918        57.1145 
 176   0.0000       2.111224        57.4493 
 177   0.0000       2.126530        57.8658 
 178   0.0000       2.148941        58.4757 
 179   0.0000       2.159300        58.7575 
 180   0.0000       2.188645        59.5561 
 181   0.0000       2.215820        60.2955 
 182   0.0000       2.232270        60.7432 
 183   0.0000       2.235423        60.8290 
 184   0.0000       2.269235        61.7490 
 185   0.0000       2.285850        62.2011 
 186   0.0000       2.308036        62.8048 
 187   0.0000       2.330710        63.4218 
 188   0.0000       2.343620        63.7731 
 189   0.0000       2.386707        64.9456 
 190   0.0000       2.398680        65.2714 
 191   0.0000       2.433194        66.2106 
 192   0.0000       2.462605        67.0109 
 193   0.0000       2.468811        67.1798 
 194   0.0000       2.483585        67.5818 
 195   0.0000       2.502452        68.0952 
 196   0.0000       2.509789        68.2948 
 197   0.0000       2.515948        68.4624 
 198   0.0000       2.542894        69.1957 
 199   0.0000       2.554788        69.5193 
 200   0.0000       2.564589        69.7860 
 201   0.0000       2.576877        70.1204 
 202   0.0000       2.600770        70.7706 
 203   0.0000       2.606930        70.9382 
 204   0.0000       2.634242        71.6814 
 205   0.0000       2.643114        71.9228 
 206   0.0000       2.655694        72.2651 
 207   0.0000       2.661593        72.4256 
 208   0.0000       2.666983        72.5723 
 209   0.0000       2.682869        73.0046 
 210   0.0000       2.690704        73.2178 
 211   0.0000       2.708039        73.6895 
 212   0.0000       2.715792        73.9005 
 213   0.0000       2.721488        74.0555 
 214   0.0000       2.742675        74.6320 
 215   0.0000       2.744556        74.6832 
 216   0.0000       2.753852        74.9361 
 217   0.0000       2.767664        75.3120 
 218   0.0000       2.781542        75.6896 
 219   0.0000       2.813246        76.5523 
 220   0.0000       2.815109        76.6030 
 221   0.0000       2.818355        76.6913 
 222   0.0000       2.852047        77.6081 
 223   0.0000       2.864958        77.9595 
 224   0.0000       2.883417        78.4618 
 225   0.0000       2.905050        79.0504 
 226   0.0000       2.957712        80.4834 
 227   0.0000       2.972024        80.8729 
 228   0.0000       2.993161        81.4481 
 229   0.0000       3.026060        82.3433 
 230   0.0000       3.033601        82.5485 
 231   0.0000       3.075691        83.6938 
 232   0.0000       3.082572        83.8811 
 233   0.0000       3.132807        85.2480 
 234   0.0000       3.141785        85.4923 
 235   0.0000       3.161521        86.0294 
 236   0.0000       3.170608        86.2766 
 237   0.0000       3.175947        86.4219 
 238   0.0000       3.198926        87.0472 
 239   0.0000       3.212853        87.4262 
 240   0.0000       3.222286        87.6829 
 241   0.0000       3.234665        88.0197 
 242   0.0000       3.256855        88.6235 
 243   0.0000       3.271917        89.0334 
 244   0.0000       3.284818        89.3844 
 245   0.0000       3.294785        89.6557 
 246   0.0000       3.299519        89.7845 
 247   0.0000       3.321319        90.3777 
 248   0.0000       3.335473        90.7628 
 249   0.0000       3.347758        91.0971 
 250   0.0000       3.359324        91.4119 
 251   0.0000       3.380712        91.9939 
 252   0.0000       3.385669        92.1287 
 253   0.0000       3.398279        92.4719 
 254   0.0000       3.413549        92.8874 
 255   0.0000       3.425809        93.2210 
 256   0.0000       3.453850        93.9840 
 257   0.0000       3.459083        94.1264 
 258   0.0000       3.470466        94.4362 
 259   0.0000       3.500117        95.2430 
 260   0.0000       3.515360        95.6578 
 261   0.0000       3.521321        95.8200 
 262   0.0000       3.527124        95.9779 
 263   0.0000       3.539891        96.3253 
 264   0.0000       3.558732        96.8380 
 265   0.0000       3.588131        97.6380 
 266   0.0000       3.596950        97.8780 
 267   0.0000       3.621872        98.5561 
 268   0.0000       3.627416        98.7070 
 269   0.0000       3.642870        99.1275 
 270   0.0000       3.667326        99.7930 
 271   0.0000       3.675171       100.0065 
 272   0.0000       3.686586       100.3171 
 273   0.0000       3.716034       101.1184 
 274   0.0000       3.748625       102.0053 
 275   0.0000       3.781969       102.9126 
 276   0.0000       3.818296       103.9011 
 277   0.0000       3.826110       104.1137 
 278   0.0000       3.834951       104.3543 
 279   0.0000       3.875565       105.4595 
 280   0.0000       3.912574       106.4666 
 281   0.0000       3.944044       107.3229 
 282   0.0000       3.951199       107.5176 
 283   0.0000       3.977150       108.2237 
 284   0.0000       3.999254       108.8252 
 285   0.0000       4.024166       109.5031 
 286   0.0000       4.039142       109.9107 
 287   0.0000       4.056451       110.3816 
 288   0.0000       4.067509       110.6826 
 289   0.0000       4.077782       110.9621 
 290   0.0000       4.091415       111.3331 
 291   0.0000       4.137628       112.5906 
 292   0.0000       4.149750       112.9204 
 293   0.0000       4.166539       113.3773 
 294   0.0000       4.175985       113.6343 
 295   0.0000       4.223456       114.9261 
 296   0.0000       4.230347       115.1136 
 297   0.0000       4.256595       115.8278 
 298   0.0000       4.287464       116.6678 
 299   0.0000       4.323007       117.6350 
 300   0.0000       4.336750       118.0090 
 301   0.0000       4.368736       118.8793 
 302   0.0000       4.402058       119.7861 
 303   0.0000       4.447156       121.0133 
 304   0.0000       4.449074       121.0655 
 305   0.0000       4.495189       122.3203 
 306   0.0000       4.531932       123.3201 
 307   0.0000       4.545848       123.6988 
 308   0.0000       4.594192       125.0143 
 309   0.0000       4.618388       125.6727 
 310   0.0000       4.631493       126.0293 
 311   0.0000       4.664256       126.9209 
 312   0.0000       4.677027       127.2684 
 313   0.0000       4.714869       128.2981 
 314   0.0000       4.775923       129.9595 
 315   0.0000       4.882477       132.8590 
 316   0.0000       4.894093       133.1750 
 317   0.0000       4.926749       134.0636 
 318   0.0000       4.959933       134.9666 
 319   0.0000       5.010860       136.3524 
 320   0.0000       5.019727       136.5937 
 321   0.0000       5.087049       138.4256 
 322   0.0000       5.142246       139.9276 
 323   0.0000       5.162150       140.4693 
 324   0.0000       5.208446       141.7290 
 325   0.0000       5.230918       142.3405 
 326   0.0000       5.260565       143.1472 
 327   0.0000       5.330775       145.0578 
 328   0.0000       5.337017       145.2276 
 329   0.0000       5.382867       146.4753 
 330   0.0000       5.461411       148.6126 
 331   0.0000       5.501258       149.6968 
 332   0.0000       5.512649       150.0068 
 333   0.0000       5.556809       151.2085 
 334   0.0000       5.655780       153.9016 
 335   0.0000       5.676837       154.4746 
 336   0.0000       5.748242       156.4176 
 337   0.0000       5.807983       158.0433 
 338   0.0000       5.890971       160.3015 
 339   0.0000       6.006750       163.4520 
 340   0.0000       6.122817       166.6103 
 341   0.0000       6.279853       170.8835 
 342   0.0000      22.519875       612.7970 
 343   0.0000      22.538127       613.2936 
 344   0.0000      22.548895       613.5866 
 345   0.0000      22.569793       614.1553 
 346   0.0000      22.591272       614.7398 
 347   0.0000      22.669821       616.8772 
 348   0.0000      23.268814       633.1766 
 349   0.0000      32.636559       888.0859 
 350   0.0000      33.044616       899.1897 

                    ********************************
                    * MULLIKEN POPULATION ANALYSIS *
                    ********************************

-----------------------
MULLIKEN ATOMIC CHARGES
-----------------------
   0 N :   -0.148213
   1 C :    0.054462
   2 N :   -0.378065
   3 C :   -0.152796
   4 C :   -0.212903
   5 C :   -0.081799
   6 H :    0.107309
   7 H :    0.115968
   8 H :    0.131333
   9 H :    0.108851
  10 H :    0.120805
  11 H :    0.110040
  12 C :   -0.122974
  13 C :   -0.226974
  14 H :    0.091736
  15 H :    0.123683
  16 C :   -0.161566
  17 H :    0.140859
  18 H :    0.105007
  19 H :    0.131027
  20 H :    0.144210
Sum of atomic charges:   -0.0000000

--------------------------------
MULLIKEN REDUCED ORBITAL CHARGES
--------------------------------
  0 N s       :     3.422755  s :     3.422755
      pz      :     1.540201  p :     3.637311
      px      :     1.080354
      py      :     1.016756
      dz2     :     0.008143  d :     0.083440
      dxz     :     0.010409
      dyz     :     0.014713
      dx2y2   :     0.025931
      dxy     :     0.024244
      f0      :     0.000727  f :     0.004707
      f+1     :     0.000524
      f-1     :     0.000779
      f+2     :     0.000509
      f-2     :     0.000422
      f+3     :     0.000633
      f-3     :     0.001113
  1 C s       :     3.124087  s :     3.124087
      pz      :     0.853376  p :     2.617280
      px      :     0.817207
      py      :     0.946698
      dz2     :     0.004799  d :     0.187073
      dxz     :     0.053446
      dyz     :     0.026137
      dx2y2   :     0.060507
      dxy     :     0.042185
      f0      :     0.002175  f :     0.017098
      f+1     :     0.001469
      f-1     :     0.001317
      f+2     :     0.002081
      f-2     :     0.002158
      f+3     :     0.003670
      f-3     :     0.004228
  2 N s       :     3.508032  s :     3.508032
      pz      :     1.250014  p :     3.806002
      px      :     1.530220
      py      :     1.025768
      dz2     :     0.006949  d :     0.060348
      dxz     :     0.009284
      dyz     :     0.010877
      dx2y2   :     0.015898
      dxy     :     0.017339
      f0      :     0.000469  f :     0.003683
      f+1     :     0.000229
      f-1     :     0.000540
      f+2     :     0.000303
      f-2     :     0.000532
      f+3     :     0.000779
      f-3     :     0.000833
  3 C s       :     3.233298  s :     3.233298
      pz      :     0.976483  p :     2.796487
      px      :     1.020123
      py      :     0.799882
      dz2     :     0.034699  d :     0.114779
      dxz     :     0.006675
      dyz     :     0.024152
      dx2y2   :     0.030770
      dxy     :     0.018484
      f0      :     0.001142  f :     0.008232
      f+1     :     0.000479
      f-1     :     0.001756
      f+2     :     0.000900
      f-2     :     0.000937
      f+3     :     0.001563
      f-3     :     0.001454
  4 C s       :     3.196561  s :     3.196561
      pz      :     1.016873  p :     2.920444
      px      :     0.930970
      py      :     0.972601
      dz2     :     0.023038  d :     0.090462
      dxz     :     0.015388
      dyz     :     0.007437
      dx2y2   :     0.024630
      dxy     :     0.019969
      f0      :     0.000970  f :     0.005436
      f+1     :     0.000628
      f-1     :     0.000449
      f+2     :     0.000575
      f-2     :     0.000425
      f+3     :     0.001100
      f-3     :     0.001288
  5 C s       :     3.193104  s :     3.193104
      pz      :     1.007775  p :     2.774942
      px      :     0.941209
      py      :     0.825957
      dz2     :     0.018717  d :     0.106413
      dxz     :     0.012827
      dyz     :     0.021156
      dx2y2   :     0.018497
      dxy     :     0.035215
      f0      :     0.001138  f :     0.007340
      f+1     :     0.000522
      f-1     :     0.000663
      f+2     :     0.001105
      f-2     :     0.000478
      f+3     :     0.001690
      f-3     :     0.001743
  6 H s       :     0.872170  s :     0.872170
      pz      :     0.012878  p :     0.020521
      px      :     0.004065
      py      :     0.003578
  7 H s       :     0.863324  s :     0.863324
      pz      :     0.005880  p :     0.020709
      px      :     0.007564
      py      :     0.007265
  8 H s       :     0.848277  s :     0.848277
      pz      :     0.004091  p :     0.020390
      px      :     0.012672
      py      :     0.003627
  9 H s       :     0.870714  s :     0.870714
      pz      :     0.013431  p :     0.020435
      px      :     0.003659
      py      :     0.003346
 10 H s       :     0.857788  s :     0.857788
      pz      :     0.004747  p :     0.021407
      px      :     0.004754
      py      :     0.011906
 11 H s       :     0.869176  s :     0.869176
      pz      :     0.013120  p :     0.020784
      px      :     0.003933
      py      :     0.003730
 12 C s       :     3.222687  s :     3.222687
      pz      :     1.004906  p :     2.776493
      px      :     0.978814
      py      :     0.792773
      dz2     :     0.026936  d :     0.115198
      dxz     :     0.011561
      dyz     :     0.028694
      dx2y2   :     0.029543
      dxy     :     0.018464
      f0      :     0.001473  f :     0.008596
      f+1     :     0.000603
      f-1     :     0.000943
      f+2     :     0.000961
      f-2     :     0.001232
      f+3     :     0.001651
      f-3     :     0.001732
 13 C s       :     3.218486  s :     3.218486
      pz      :     1.006943  p :     2.915434
      px      :     0.907429
      py      :     1.001063
      dz2     :     0.022400  d :     0.087228
      dxz     :     0.017876
      dyz     :     0.005255
      dx2y2   :     0.025409
      dxy     :     0.016288
      f0      :     0.000730  f :     0.005826
      f+1     :     0.000711
      f-1     :     0.000667
      f+2     :     0.000754
      f-2     :     0.000510
      f+3     :     0.001224
      f-3     :     0.001230
 14 H s       :     0.887782  s :     0.887782
      pz      :     0.012724  p :     0.020483
      px      :     0.003589
      py      :     0.004170
 15 H s       :     0.856400  s :     0.856400
      pz      :     0.004639  p :     0.019917
      px      :     0.012154
      py      :     0.003124
 16 C s       :     3.173513  s :     3.173513
      pz      :     1.044279  p :     2.903530
      px      :     0.970806
      py      :     0.888444
      dz2     :     0.010015  d :     0.078968
      dxz     :     0.018500
      dyz     :     0.012357
      dx2y2   :     0.020366
      dxy     :     0.017730
      f0      :     0.000470  f :     0.005555
      f+1     :     0.001024
      f-1     :     0.000440
      f+2     :     0.000829
      f-2     :     0.000380
      f+3     :     0.001446
      f-3     :     0.000965
 17 H s       :     0.838418  s :     0.838418
      pz      :     0.003891  p :     0.020723
      px      :     0.004050
      py      :     0.012782
 18 H s       :     0.874005  s :     0.874005
      pz      :     0.012758  p :     0.020988
      px      :     0.004224
      py      :     0.004006
 19 H s       :     0.847602  s :     0.847602
      pz      :     0.010731  p :     0.021372
      px      :     0.005418
      py      :     0.005222
 20 H s       :     0.835139  s :     0.835139
      pz      :     0.008778  p :     0.020651
      px      :     0.007791
      py      :     0.004083


                     *******************************
                     * LOEWDIN POPULATION ANALYSIS *
                     *******************************

----------------------
LOEWDIN ATOMIC CHARGES
----------------------
   0 N :    0.169211
   1 C :   -0.299763
   2 N :    0.020132
   3 C :   -0.265021
   4 C :   -0.266482
   5 C :   -0.311119
   6 H :    0.132823
   7 H :    0.132208
   8 H :    0.139708
   9 H :    0.132850
  10 H :    0.140263
  11 H :    0.143246
  12 C :   -0.268399
  13 C :   -0.250741
  14 H :    0.128733
  15 H :    0.134174
  16 C :   -0.209243
  17 H :    0.137727
  18 H :    0.148165
  19 H :    0.157566
  20 H :    0.153962

-------------------------------
LOEWDIN REDUCED ORBITAL CHARGES
-------------------------------
  0 N s       :     2.882124  s :     2.882124
      pz      :     1.379340  p :     3.635870
      px      :     1.139133
      py      :     1.117397
      dz2     :     0.030543  d :     0.292400
      dxz     :     0.032204
      dyz     :     0.047150
      dx2y2   :     0.096650
      dxy     :     0.085852
      f0      :     0.001809  f :     0.020396
      f+1     :     0.001638
      f-1     :     0.002446
      f+2     :     0.002481
      f-2     :     0.002297
      f+3     :     0.003078
      f-3     :     0.006646
  1 C s       :     2.725477  s :     2.725477
      pz      :     0.801909  p :     2.722951
      px      :     0.928798
      py      :     0.992244
      dz2     :     0.050911  d :     0.754474
      dxz     :     0.157043
      dyz     :     0.095182
      dx2y2   :     0.261072
      dxy     :     0.190266
      f0      :     0.005936  f :     0.096862
      f+1     :     0.008609
      f-1     :     0.005435
      f+2     :     0.012690
      f-2     :     0.013960
      f+3     :     0.022985
      f-3     :     0.027246
  2 N s       :     3.049972  s :     3.049972
      pz      :     1.151167  p :     3.717976
      px      :     1.438573
      py      :     1.128235
      dz2     :     0.019504  d :     0.196163
      dxz     :     0.014322
      dyz     :     0.039983
      dx2y2   :     0.061069
      dxy     :     0.061284
      f0      :     0.001351  f :     0.015758
      f+1     :     0.000932
      f-1     :     0.001918
      f+2     :     0.001203
      f-2     :     0.002247
      f+3     :     0.003978
      f-3     :     0.004129
  3 C s       :     2.783216  s :     2.783216
      pz      :     1.019463  p :     2.958743
      px      :     1.019560
      py      :     0.919719
      dz2     :     0.134536  d :     0.468071
      dxz     :     0.031155
      dyz     :     0.096361
      dx2y2   :     0.122083
      dxy     :     0.083935
      f0      :     0.005316  f :     0.054992
      f+1     :     0.003020
      f-1     :     0.009801
      f+2     :     0.009019
      f-2     :     0.009345
      f+3     :     0.009539
      f-3     :     0.008952
  4 C s       :     2.789212  s :     2.789212
      pz      :     1.029285  p :     3.060799
      px      :     1.026285
      py      :     1.005229
      dz2     :     0.097442  d :     0.379237
      dxz     :     0.060425
      dyz     :     0.038241
      dx2y2   :     0.099067
      dxy     :     0.084062
      f0      :     0.005079  f :     0.037233
      f+1     :     0.004247
      f-1     :     0.002455
      f+2     :     0.005962
      f-2     :     0.005607
      f+3     :     0.006426
      f-3     :     0.007458
  5 C s       :     2.795079  s :     2.795079
      pz      :     1.037181  p :     2.993309
      px      :     1.024261
      py      :     0.931867
      dz2     :     0.091770  d :     0.470891
      dxz     :     0.055587
      dyz     :     0.079102
      dx2y2   :     0.093286
      dxy     :     0.151145
      f0      :     0.006379  f :     0.051840
      f+1     :     0.003362
      f-1     :     0.004487
      f+2     :     0.008189
      f-2     :     0.007045
      f+3     :     0.011896
      f-3     :     0.010483
  6 H s       :     0.811502  s :     0.811502
      pz      :     0.033396  p :     0.055675
      px      :     0.012028
      py      :     0.010251
  7 H s       :     0.812568  s :     0.812568
      pz      :     0.017537  p :     0.055224
      px      :     0.019493
      py      :     0.018195
  8 H s       :     0.804647  s :     0.804647
      pz      :     0.013259  p :     0.055645
      px      :     0.031839
      py      :     0.010547
  9 H s       :     0.810685  s :     0.810685
      pz      :     0.034840  p :     0.056466
      px      :     0.011622
      py      :     0.010004
 10 H s       :     0.803092  s :     0.803092
      pz      :     0.014722  p :     0.056644
      px      :     0.013459
      py      :     0.028464
 11 H s       :     0.800549  s :     0.800549
      pz      :     0.032796  p :     0.056205
      px      :     0.012059
      py      :     0.011349
 12 C s       :     2.781384  s :     2.781384
      pz      :     1.038097  p :     2.947910
      px      :     1.003468
      py      :     0.906346
      dz2     :     0.109288  d :     0.480972
      dxz     :     0.050079
      dyz     :     0.108864
      dx2y2   :     0.124966
      dxy     :     0.087775
      f0      :     0.007701  f :     0.058132
      f+1     :     0.003907
      f-1     :     0.006565
      f+2     :     0.007747
      f-2     :     0.009808
      f+3     :     0.010742
      f-3     :     0.011663
 13 C s       :     2.782480  s :     2.782480
      pz      :     1.025560  p :     3.040631
      px      :     1.005874
      py      :     1.009197
      dz2     :     0.102574  d :     0.387631
      dxz     :     0.070421
      dyz     :     0.028223
      dx2y2   :     0.107932
      dxy     :     0.078480
      f0      :     0.004084  f :     0.039999
      f+1     :     0.004729
      f-1     :     0.004545
      f+2     :     0.005540
      f-2     :     0.006487
      f+3     :     0.007128
      f-3     :     0.007485
 14 H s       :     0.815056  s :     0.815056
      pz      :     0.033037  p :     0.056211
      px      :     0.011310
      py      :     0.011864
 15 H s       :     0.810262  s :     0.810262
      pz      :     0.014982  p :     0.055564
      px      :     0.031252
      py      :     0.009329
 16 C s       :     2.771456  s :     2.771456
      pz      :     1.025011  p :     3.033648
      px      :     1.009759
      py      :     0.998879
      dz2     :     0.047345  d :     0.363542
      dxz     :     0.090126
      dyz     :     0.057641
      dx2y2   :     0.093782
      dxy     :     0.074648
      f0      :     0.003837  f :     0.040597
      f+1     :     0.004589
      f-1     :     0.004354
      f+2     :     0.005077
      f-2     :     0.003722
      f+3     :     0.011728
      f-3     :     0.007289
 17 H s       :     0.805359  s :     0.805359
      pz      :     0.012435  p :     0.056915
      px      :     0.011676
      py      :     0.032803
 18 H s       :     0.796039  s :     0.796039
      pz      :     0.030761  p :     0.055796
      px      :     0.012308
      py      :     0.012727
 19 H s       :     0.785584  s :     0.785584
      pz      :     0.028630  p :     0.056851
      px      :     0.014151
      py      :     0.014069
 20 H s       :     0.789455  s :     0.789455
      pz      :     0.025102  p :     0.056582
      px      :     0.019762
      py      :     0.011719


                      *****************************
                      * MAYER POPULATION ANALYSIS *
                      *****************************

  NA   - Mulliken gross atomic population
  ZA   - Total nuclear charge
  QA   - Mulliken gross atomic charge
  VA   - Mayer's total valence
  BVA  - Mayer's bonded valence
  FA   - Mayer's free valence

  ATOM       NA         ZA         QA         VA         BVA        FA
  0 N      7.1482     7.0000    -0.1482     3.0974     3.0974    -0.0000
  1 C      5.9455     6.0000     0.0545     4.2576     4.2576    -0.0000
  2 N      7.3781     7.0000    -0.3781     3.0222     3.0222     0.0000
  3 C      6.1528     6.0000    -0.1528     3.9233     3.9233     0.0000
  4 C      6.2129     6.0000    -0.2129     3.9049     3.9049    -0.0000
  5 C      6.0818     6.0000    -0.0818     3.9538     3.9538    -0.0000
  6 H      0.8927     1.0000     0.1073     0.9692     0.9692     0.0000
  7 H      0.8840     1.0000     0.1160     0.9616     0.9616     0.0000
  8 H      0.8687     1.0000     0.1313     0.9600     0.9600     0.0000
  9 H      0.8911     1.0000     0.1089     0.9687     0.9687    -0.0000
 10 H      0.8792     1.0000     0.1208     0.9689     0.9689    -0.0000
 11 H      0.8900     1.0000     0.1100     0.9780     0.9780    -0.0000
 12 C      6.1230     6.0000    -0.1230     3.9108     3.9108    -0.0000
 13 C      6.2270     6.0000    -0.2270     3.9618     3.9618    -0.0000
 14 H      0.9083     1.0000     0.0917     0.9707     0.9707     0.0000
 15 H      0.8763     1.0000     0.1237     0.9605     0.9605    -0.0000
 16 C      6.1616     6.0000    -0.1616     3.8970     3.8970    -0.0000
 17 H      0.8591     1.0000     0.1409     0.9694     0.9694     0.0000
 18 H      0.8950     1.0000     0.1050     0.9776     0.9776    -0.0000
 19 H      0.8690     1.0000     0.1310     0.9808     0.9808    -0.0000
 20 H      0.8558     1.0000     0.1442     0.9778     0.9778    -0.0000

  Mayer bond orders larger than 0.100000
B(  0-N ,  1-C ) :   1.1658 B(  0-N ,  3-C ) :   0.9638 B(  0-N , 12-C ) :   0.9599 
B(  1-C ,  2-N ) :   1.9767 B(  1-C , 16-C ) :   0.9876 B(  2-N ,  5-C ) :   0.9795 
B(  3-C ,  4-C ) :   0.9768 B(  3-C ,  8-H ) :   0.9566 B(  3-C ,  9-H ) :   0.9645 
B(  4-C ,  5-C ) :   0.9945 B(  4-C , 10-H ) :   0.9625 B(  4-C , 11-H ) :   0.9714 
B(  5-C ,  6-H ) :   0.9666 B(  5-C ,  7-H ) :   0.9645 B( 12-C , 13-C ) :   0.9941 
B( 12-C , 14-H ) :   0.9584 B( 12-C , 15-H ) :   0.9558 B( 13-C , 16-C ) :   1.0080 
B( 13-C , 17-H ) :   0.9681 B( 13-C , 18-H ) :   0.9652 B( 16-C , 19-H ) :   0.9480 
B( 16-C , 20-H ) :   0.9539 

-------
TIMINGS
-------

Total SCF time: 0 days 0 hours 8 min 23 sec 

Total time                  ....     503.024 sec
Sum of individual times     ....     502.341 sec  ( 99.9%)

Fock matrix formation       ....     499.610 sec  ( 99.3%)
  XC integration            ....       5.649 sec  (  1.1% of F)
    Basis function eval.    ....       1.237 sec  ( 21.9% of XC)
    Density eval.           ....       1.340 sec  ( 23.7% of XC)
    XC-Functional eval.     ....       0.464 sec  (  8.2% of XC)
    XC-Potential eval.      ....       2.437 sec  ( 43.1% of XC)
Diagonalization             ....       0.405 sec  (  0.1%)
Density matrix formation    ....       0.025 sec  (  0.0%)
Population analysis         ....       0.038 sec  (  0.0%)
Initial guess               ....       0.661 sec  (  0.1%)
Orbital Transformation      ....       0.000 sec  (  0.0%)
Orbital Orthonormalization  ....       0.000 sec  (  0.0%)
DIIS solution               ....       0.122 sec  (  0.0%)
SOSCF solution              ....       0.256 sec  (  0.1%)
Grid generation             ....       1.224 sec  (  0.2%)


-------------------------------------------------------------------------------
                          DFT DISPERSION CORRECTION                            
                                                                               
                              DFTD3 V3.1  Rev 1                                
                              USING zero damping                               
-------------------------------------------------------------------------------
The omegaB97X-D3 functional is recognized. Fit by Chai et al.
Active option DFTDOPT                   ...         3   

molecular C6(AA) [au] = 3584.536719 


            DFT-D V3
 parameters
 s6 scaling factor         :     1.0000 
 rs6 scaling factor        :     1.2810 
 s8 scaling factor         :     1.0000 
 rs8 scaling factor        :     1.0940 
 Damping factor alpha6     :    14.0000 
 Damping factor alpha8     :    16.0000 
 ad hoc parameters k1-k3   :    16.0000     1.3333    -4.0000 

 Edisp/kcal,au: -4.205655028632  -0.006702137185 
 E6   /kcal   :  -1.690717719 
 E8   /kcal   :  -2.514937310 
 % E8         :  59.798944341 

-------------------------   ----------------
Dispersion correction           -0.006702137
-------------------------   ----------------


-------------------------   --------------------
FINAL SINGLE POINT ENERGY      -383.502634450140
-------------------------   --------------------

--------------------------------------------------------------------------
[[54524,1],3]: A high-performance Open MPI point-to-point messaging module
was unable to find any relevant network interfaces:

Module: OpenFabrics (openib)
  Host: compute-1-11

Another transport will be used instead, although this may result in
lower performance.

NOTE: You can disable this warning by setting the MCA parameter
[...]
      dxy     :     0.020558
      f0      :     0.000962  f :     0.005451
      f+1     :     0.000637
      f-1     :     0.000430
      f+2     :     0.000562
      f-2     :     0.000438
      f+3     :     0.001086
      f-3     :     0.001336
  5 C s       :     3.180303  s :     3.180303
      pz      :     1.001363  p :     2.782987
      px      :     0.935092
      py      :     0.846532
      dz2     :     0.020162  d :     0.107688
      dxz     :     0.013259
      dyz     :     0.020514
      dx2y2   :     0.017659
      dxy     :     0.036095
      f0      :     0.001125  f :     0.007330
      f+1     :     0.000501
      f-1     :     0.000753
      f+2     :     0.001101
      f-2     :     0.000547
      f+3     :     0.001619
      f-3     :     0.001685
  6 H s       :     0.878899  s :     0.878899
      pz      :     0.012936  p :     0.021096
      px      :     0.004332
      py      :     0.003827
  7 H s       :     0.864850  s :     0.864850
      pz      :     0.005726  p :     0.021198
      px      :     0.007743
      py      :     0.007729
  8 H s       :     0.854005  s :     0.854005
      pz      :     0.004809  p :     0.021020
      px      :     0.012469
      py      :     0.003742
  9 H s       :     0.869083  s :     0.869083
      pz      :     0.013458  p :     0.020860
      px      :     0.003989
      py      :     0.003413
 10 H s       :     0.858558  s :     0.858558
      pz      :     0.005330  p :     0.022024
      px      :     0.005016
      py      :     0.011678
 11 H s       :     0.867737  s :     0.867737
      pz      :     0.013041  p :     0.021368
      px      :     0.004194
      py      :     0.004133
 12 C s       :     3.219608  s :     3.219608
      pz      :     1.021241  p :     2.784451
      px      :     0.963302
      py      :     0.799908
      dz2     :     0.021236  d :     0.112258
      dxz     :     0.016215
      dyz     :     0.026954
      dx2y2   :     0.029909
      dxy     :     0.017944
      f0      :     0.001335  f :     0.008391
      f+1     :     0.000543
      f-1     :     0.000973
      f+2     :     0.000795
      f-2     :     0.001434
      f+3     :     0.001583
      f-3     :     0.001728
 13 C s       :     3.216121  s :     3.216121
      pz      :     1.019765  p :     2.923748
      px      :     0.908721
      py      :     0.995263
      dz2     :     0.018565  d :     0.081840
      dxz     :     0.018318
      dyz     :     0.005663
      dx2y2   :     0.023360
      dxy     :     0.015933
      f0      :     0.000898  f :     0.005663
      f+1     :     0.000690
      f-1     :     0.000436
      f+2     :     0.000762
      f-2     :     0.000523
      f+3     :     0.001146
      f-3     :     0.001207
 14 H s       :     0.879439  s :     0.879439
      pz      :     0.012330  p :     0.020925
      px      :     0.004175
      py      :     0.004419
 15 H s       :     0.857876  s :     0.857876
      pz      :     0.005540  p :     0.020688
      px      :     0.011692
      py      :     0.003456
 16 C s       :     3.178932  s :     3.178932
      pz      :     1.045498  p :     2.901244
      px      :     0.964078
      py      :     0.891668
      dz2     :     0.008091  d :     0.076418
      dxz     :     0.018091
      dyz     :     0.012123
      dx2y2   :     0.020485
      dxy     :     0.017628
      f0      :     0.000422  f :     0.005368
      f+1     :     0.000943
      f-1     :     0.000432
      f+2     :     0.000742
      f-2     :     0.000439
      f+3     :     0.001483
      f-3     :     0.000907
 17 H s       :     0.851452  s :     0.851452
      pz      :     0.004672  p :     0.021498
      px      :     0.004380
      py      :     0.012446
 18 H s       :     0.864310  s :     0.864310
      pz      :     0.012834  p :     0.021520
      px      :     0.004561
      py      :     0.004124
 19 H s       :     0.850392  s :     0.850392
      pz      :     0.009605  p :     0.021762
      px      :     0.006280
      py      :     0.005876
 20 H s       :     0.846580  s :     0.846580
      pz      :     0.009195  p :     0.021675
      px      :     0.008259
      py      :     0.004221


                     *******************************
                     * LOEWDIN POPULATION ANALYSIS *
                     *******************************

----------------------
LOEWDIN ATOMIC CHARGES
----------------------
   0 N :    0.192694
   1 C :   -0.329026
   2 N :    0.013665
   3 C :   -0.257519
   4 C :   -0.262055
   5 C :   -0.307811
   6 H :    0.129587
   7 H :    0.129191
   8 H :    0.136638
   9 H :    0.131472
  10 H :    0.140647
  11 H :    0.140853
  12 C :   -0.245785
  13 C :   -0.240720
  14 H :    0.127021
  15 H :    0.131321
  16 C :   -0.202694
  17 H :    0.135987
  18 H :    0.139920
  19 H :    0.150884
  20 H :    0.145731

-------------------------------
LOEWDIN REDUCED ORBITAL CHARGES
-------------------------------
  0 N s       :     2.864467  s :     2.864467
      pz      :     1.357352  p :     3.618947
      px      :     1.148213
      py      :     1.113382
      dz2     :     0.027087  d :     0.302833
      dxz     :     0.037021
      dyz     :     0.043392
      dx2y2   :     0.098453
      dxy     :     0.096880
      f0      :     0.001987  f :     0.021060
      f+1     :     0.001836
      f-1     :     0.002184
      f+2     :     0.002469
      f-2     :     0.002266
      f+3     :     0.002964
      f-3     :     0.007353
  1 C s       :     2.712791  s :     2.712791
      pz      :     0.797206  p :     2.729560
      px      :     0.947579
      py      :     0.984776
      dz2     :     0.052444  d :     0.785965
      dxz     :     0.178750
      dyz     :     0.094420
      dx2y2   :     0.277299
      dxy     :     0.183053
      f0      :     0.006325  f :     0.100710
      f+1     :     0.009203
      f-1     :     0.005214
      f+2     :     0.012688
      f-2     :     0.014377
      f+3     :     0.024817
      f-3     :     0.028086
  2 N s       :     3.053727  s :     3.053727
      pz      :     1.177958  p :     3.717903
      px      :     1.420021
      py      :     1.119924
      dz2     :     0.020399  d :     0.197739
      dxz     :     0.015480
      dyz     :     0.038256
      dx2y2   :     0.061258
      dxy     :     0.062346
      f0      :     0.001327  f :     0.016966
      f+1     :     0.001032
      f-1     :     0.002066
      f+2     :     0.001050
      f-2     :     0.002497
      f+3     :     0.004424
      f-3     :     0.004572
  3 C s       :     2.772291  s :     2.772291
      pz      :     1.028850  p :     2.957374
      px      :     1.012756
      py      :     0.915768
      dz2     :     0.124897  d :     0.472235
      dxz     :     0.041442
      dyz     :     0.094262
      dx2y2   :     0.125769
      dxy     :     0.085866
      f0      :     0.006233  f :     0.055618
      f+1     :     0.002561
      f-1     :     0.008554
      f+2     :     0.009101
      f-2     :     0.009362
      f+3     :     0.010152
      f-3     :     0.009655
  4 C s       :     2.775027  s :     2.775027
      pz      :     1.030362  p :     3.061115
      px      :     1.026939
      py      :     1.003815
      dz2     :     0.095085  d :     0.387115
      dxz     :     0.064025
      dyz     :     0.043150
      dx2y2   :     0.097903
      dxy     :     0.086951
      f0      :     0.005372  f :     0.038798
      f+1     :     0.004501
      f-1     :     0.002291
      f+2     :     0.006162
      f-2     :     0.005858
      f+3     :     0.006698
      f-3     :     0.007916
  5 C s       :     2.782968  s :     2.782968
      pz      :     1.035349  p :     2.993147
      px      :     1.022993
      py      :     0.934805
      dz2     :     0.098012  d :     0.479032
      dxz     :     0.058044
      dyz     :     0.077216
      dx2y2   :     0.091719
      dxy     :     0.154041
      f0      :     0.006495  f :     0.052664
      f+1     :     0.003499
      f-1     :     0.004722
      f+2     :     0.008346
      f-2     :     0.007969
      f+3     :     0.011163
      f-3     :     0.010471
  6 H s       :     0.812613  s :     0.812613
      pz      :     0.033783  p :     0.057800
      px      :     0.012852
      py      :     0.011165
  7 H s       :     0.813370  s :     0.813370
      pz      :     0.017529  p :     0.057439
      px      :     0.020158
      py      :     0.019752
  8 H s       :     0.805175  s :     0.805175
      pz      :     0.015631  p :     0.058187
      px      :     0.031630
      py      :     0.010926
  9 H s       :     0.810334  s :     0.810334
      pz      :     0.035373  p :     0.058194
      px      :     0.012331
      py      :     0.010489
 10 H s       :     0.800099  s :     0.800099
      pz      :     0.016561  p :     0.059254
      px      :     0.014461
      py      :     0.028232
 11 H s       :     0.800278  s :     0.800278
      pz      :     0.033311  p :     0.058868
      px      :     0.013021
      py      :     0.012536
 12 C s       :     2.775696  s :     2.775696
      pz      :     1.046303  p :     2.946356
      px      :     0.994669
      py      :     0.905385
      dz2     :     0.091630  d :     0.467105
      dxz     :     0.067983
      dyz     :     0.101805
      dx2y2   :     0.116903
      dxy     :     0.088784
      f0      :     0.007122  f :     0.056628
      f+1     :     0.003589
      f-1     :     0.006969
      f+2     :     0.006792
      f-2     :     0.009529
      f+3     :     0.010853
      f-3     :     0.011776
 13 C s       :     2.773949  s :     2.773949
      pz      :     1.031105  p :     3.048070
      px      :     1.007870
      py      :     1.009094
      dz2     :     0.094150  d :     0.378330
      dxz     :     0.072137
      dyz     :     0.034256
      dx2y2   :     0.101382
      dxy     :     0.076404
      f0      :     0.004759  f :     0.040371
      f+1     :     0.004873
      f-1     :     0.003008
      f+2     :     0.006432
      f-2     :     0.006372
      f+3     :     0.007220
      f-3     :     0.007707
 14 H s       :     0.814574  s :     0.814574
      pz      :     0.033081  p :     0.058405
      px      :     0.012429
      py      :     0.012895
 15 H s       :     0.810150  s :     0.810150
      pz      :     0.017716  p :     0.058530
      px      :     0.030319
      py      :     0.010495
 16 C s       :     2.766762  s :     2.766762
      pz      :     1.033823  p :     3.033952
      px      :     1.007442
      py      :     0.992687
      dz2     :     0.040355  d :     0.362371
      dxz     :     0.093527
      dyz     :     0.055864
      dx2y2   :     0.095311
      dxy     :     0.077313
      f0      :     0.003343  f :     0.039609
      f+1     :     0.004708
      f-1     :     0.004466
      f+2     :     0.004810
      f-2     :     0.004081
      f+3     :     0.011237
      f-3     :     0.006965
 17 H s       :     0.804245  s :     0.804245
      pz      :     0.015326  p :     0.059768
      px      :     0.012901
      py      :     0.031541
 18 H s       :     0.800711  s :     0.800711
      pz      :     0.032819  p :     0.059369
      px      :     0.013603
      py      :     0.012947
 19 H s       :     0.789486  s :     0.789486
      pz      :     0.027302  p :     0.059630
      px      :     0.016421
      py      :     0.015906
 20 H s       :     0.794211  s :     0.794211
      pz      :     0.026441  p :     0.060058
      px      :     0.020963
      py      :     0.012654


                      *****************************
                      * MAYER POPULATION ANALYSIS *
                      *****************************

  NA   - Mulliken gross atomic population
  ZA   - Total nuclear charge
  QA   - Mulliken gross atomic charge
  VA   - Mayer's total valence
  BVA  - Mayer's bonded valence
  FA   - Mayer's free valence

  ATOM       NA         ZA         QA         VA         BVA        FA
  0 N      7.1172     7.0000    -0.1172     3.1141     3.1141    -0.0000
  1 C      5.9501     6.0000     0.0499     4.2677     4.2677    -0.0000
  2 N      7.3840     7.0000    -0.3840     3.0455     3.0455    -0.0000
  3 C      6.1443     6.0000    -0.1443     3.9040     3.9040    -0.0000
  4 C      6.2133     6.0000    -0.2133     3.9223     3.9223    -0.0000
  5 C      6.0783     6.0000    -0.0783     3.9504     3.9504    -0.0000
  6 H      0.9000     1.0000     0.1000     0.9714     0.9714    -0.0000
  7 H      0.8860     1.0000     0.1140     0.9608     0.9608    -0.0000
  8 H      0.8750     1.0000     0.1250     0.9618     0.9618    -0.0000
  9 H      0.8899     1.0000     0.1101     0.9664     0.9664    -0.0000
 10 H      0.8806     1.0000     0.1194     0.9695     0.9695    -0.0000
 11 H      0.8891     1.0000     0.1109     0.9752     0.9752    -0.0000
 12 C      6.1247     6.0000    -0.1247     3.9014     3.9014    -0.0000
 13 C      6.2274     6.0000    -0.2274     3.9853     3.9853    -0.0000
 14 H      0.9004     1.0000     0.0996     0.9670     0.9670    -0.0000
 15 H      0.8786     1.0000     0.1214     0.9627     0.9627    -0.0000
 16 C      6.1620     6.0000    -0.1620     3.8747     3.8747    -0.0000
 17 H      0.8729     1.0000     0.1271     0.9745     0.9745    -0.0000
 18 H      0.8858     1.0000     0.1142     0.9724     0.9724    -0.0000
 19 H      0.8722     1.0000     0.1278     0.9785     0.9785    -0.0000
 20 H      0.8683     1.0000     0.1317     0.9864     0.9864    -0.0000

  Mayer bond orders larger than 0.100000
B(  0-N ,  1-C ) :   1.2030 B(  0-N ,  3-C ) :   0.9514 B(  0-N , 12-C ) :   0.9442 
B(  1-C ,  2-N ) :   1.9848 B(  1-C , 16-C ) :   0.9622 B(  2-N ,  5-C ) :   0.9805 
B(  3-C ,  4-C ) :   0.9867 B(  3-C ,  8-H ) :   0.9600 B(  3-C ,  9-H ) :   0.9645 
B(  4-C ,  5-C ) :   0.9888 B(  4-C , 10-H ) :   0.9664 B(  4-C , 11-H ) :   0.9730 
B(  5-C ,  6-H ) :   0.9719 B(  5-C ,  7-H ) :   0.9690 B( 12-C , 13-C ) :   1.0053 
B( 12-C , 14-H ) :   0.9545 B( 12-C , 15-H ) :   0.9653 B( 13-C , 16-C ) :   1.0077 
B( 13-C , 17-H ) :   0.9780 B( 13-C , 18-H ) :   0.9657 B( 16-C , 19-H ) :   0.9548 
B( 16-C , 20-H ) :   0.9668 

-------
TIMINGS
-------

Total SCF time: 0 days 0 hours 4 min 12 sec 

Total time                  ....     252.408 sec
Sum of individual times     ....     251.768 sec  ( 99.7%)

Fock matrix formation       ....     250.109 sec  ( 99.1%)
  XC integration            ....       3.522 sec  (  1.4% of F)
    Basis function eval.    ....       0.780 sec  ( 22.2% of XC)
    Density eval.           ....       0.848 sec  ( 24.1% of XC)
    XC-Functional eval.     ....       0.293 sec  (  8.3% of XC)
    XC-Potential eval.      ....       1.438 sec  ( 40.8% of XC)
Diagonalization             ....       0.058 sec  (  0.0%)
Density matrix formation    ....       0.029 sec  (  0.0%)
Population analysis         ....       0.039 sec  (  0.0%)
Initial guess               ....       0.069 sec  (  0.0%)
Orbital Transformation      ....       0.000 sec  (  0.0%)
Orbital Orthonormalization  ....       0.056 sec  (  0.0%)
DIIS solution               ....       0.014 sec  (  0.0%)
SOSCF solution              ....       0.241 sec  (  0.1%)
Grid generation             ....       1.209 sec  (  0.5%)


-------------------------------------------------------------------------------
                          DFT DISPERSION CORRECTION                            
                                                                               
                              DFTD3 V3.1  Rev 1                                
                              USING zero damping                               
-------------------------------------------------------------------------------
The omegaB97X-D3 functional is recognized. Fit by Chai et al.
Active option DFTDOPT                   ...         3   

molecular C6(AA) [au] = 3585.501572 


            DFT-D V3
 parameters
 s6 scaling factor         :     1.0000 
 rs6 scaling factor        :     1.2810 
 s8 scaling factor         :     1.0000 
 rs8 scaling factor        :     1.0940 
 Damping factor alpha6     :    14.0000 
 Damping factor alpha8     :    16.0000 
 ad hoc parameters k1-k3   :    16.0000     1.3333    -4.0000 

 Edisp/kcal,au: -4.210454310978  -0.006709785327 
 E6   /kcal   :  -1.683270964 
 E8   /kcal   :  -2.527183347 
 % E8         :  60.021630940 

-------------------------   ----------------
Dispersion correction           -0.006709785
-------------------------   ----------------


-------------------------   --------------------
FINAL SINGLE POINT ENERGY      -383.515204449103
-------------------------   --------------------

                                *** OPTIMIZATION RUN DONE ***

                            ***************************************
                            *     ORCA property calculations      *
                            ***************************************

                                    ---------------------
                                    Active property flags
                                    ---------------------
   (+) Dipole Moment


------------------------------------------------------------------------------
                       ORCA ELECTRIC PROPERTIES CALCULATION
------------------------------------------------------------------------------

Dipole Moment Calculation                       ... on
Quadrupole Moment Calculation                   ... off
Polarizability Calculation                      ... off
GBWName                                         ... DBU.gbw
Electron density file                           ... DBU.scfp
The origin for moment calculation is the CENTER OF MASS  = ( 8.153741,  9.837995  1.084556)

-------------
DIPOLE MOMENT
-------------
                                X             Y             Z
Electronic contribution:     -1.95253       0.20718       0.29064
Nuclear contribution   :      3.52235       0.13845      -0.52127
                        -----------------------------------------
Total Dipole Moment    :      1.56982       0.34563      -0.23063
                        -----------------------------------------
Magnitude (a.u.)       :      1.62388
Magnitude (Debye)      :      4.12758



--------------------
Rotational spectrum 
--------------------
 
Rotational constants in cm-1:     0.109325     0.049504     0.036233 
Rotational constants in MHz :  3277.481119  1484.088975  1086.247419 

 Dipole components along the rotational axes: 
x,y,z [a.u.] :     0.593108     1.507764    -0.108948 
x,y,z [Debye]:     1.507561     3.832431    -0.276924 

 
--------------------------------------------------------------------------
[[49689,1],0]: A high-performance Open MPI point-to-point messaging module
was unable to find any relevant network interfaces:

Module: OpenFabrics (openib)
  Host: compute-1-11

Another transport will be used instead, although this may result in
lower performance.

NOTE: You can disable this warning by setting the MCA parameter
btl_base_warn_component_unused to 0.
--------------------------------------------------------------------------
[compute-1-11.local:30503] 3 more processes have sent help message help-mpi-btl-base.txt / btl:no-nics
[compute-1-11.local:30503] Set MCA parameter "orte_base_help_aggregate" to 0 to see all help / error messages

Timings for individual modules:

Sum of individual times         ...     6441.660 sec (= 107.361 min)
GTO integral calculation        ...       64.683 sec (=   1.078 min)   1.0 %
SCF iterations                  ...     3767.911 sec (=  62.799 min)  58.5 %
SCF Gradient evaluation         ...     2603.796 sec (=  43.397 min)  40.4 %
Geometry relaxation             ...        5.269 sec (=   0.088 min)   0.1 %
                             ****ORCA TERMINATED NORMALLY****
TOTAL RUN TIME: 0 days 1 hours 47 minutes 26 seconds 283 msec
