Warning: no access to tty (Bad file descriptor).
Thus no job control in this shell.

                                 *****************
                                 * O   R   C   A *
                                 *****************

           --- An Ab Initio, DFT and Semiempirical electronic structure package ---

                  #######################################################
                  #                        -***-                        #
                  #          Department of theory and spectroscopy      #
                  #               Directorship: Frank Neese             #
                  #        Max Planck Institute fuer Kohlenforschung    #
                  #                Kaiser Wilhelm Platz 1               #
                  #                 D-45470 Muelheim/Ruhr               #
                  #                      Germany                        #
                  #                                                     #
                  #                  All rights reserved                #
                  #                        -***-                        #
                  #######################################################


                         Program Version 4.2.1 -  RELEASE  -


 With contributions from (in alphabetic order):
   Daniel Aravena         : Magnetic Suceptibility
   Michael Atanasov       : Ab Initio Ligand Field Theory (pilot matlab implementation)
   Alexander A. Auer      : GIAO ZORA, VPT2
   Ute Becker             : Parallelization
   Giovanni Bistoni       : ED, misc. LED, open-shell LED, HFLD
   Martin Brehm           : Molecular dynamics
   Dmytro Bykov           : SCF Hessian
   Vijay G. Chilkuri      : MRCI spin determinant printing, contributions to CSF-ICE
   Dipayan Datta          : RHF DLPNO-CCSD density
   Achintya Kumar Dutta   : EOM-CC, STEOM-CC
   Dmitry Ganyushin       : Spin-Orbit,Spin-Spin,Magnetic field MRCI
   Miquel Garcia          : C-PCM Hessian, Gaussian charge scheme
   Yang Guo               : DLPNO-NEVPT2, CIM, IAO-localization
   Andreas Hansen         : Spin unrestricted coupled pair/coupled cluster methods
   Benjamin Helmich-Paris : CASSCF linear response (MC-RPA)
   Lee Huntington         : MR-EOM, pCC
   Robert Izsak           : Overlap fitted RIJCOSX, COSX-SCS-MP3, EOM
   Christian Kollmar      : KDIIS, OOCD, Brueckner-CCSD(T), CCSD density
   Simone Kossmann        : Meta GGA functionals, TD-DFT gradient, OOMP2, MP2 Hessian
   Martin Krupicka        : AUTO-CI
   Lucas Lang             : DCDCAS
   Dagmar Lenk            : GEPOL surface, SMD
   Dimitrios Liakos       : Extrapolation schemes; Compound Job, initial MDCI parallelization
   Dimitrios Manganas     : Further ROCIS development; embedding schemes
   Dimitrios Pantazis     : SARC Basis sets
   Taras Petrenko         : DFT Hessian,TD-DFT gradient, ASA, ECA, R-Raman, ABS, FL, XAS/XES, NRVS
   Peter Pinski           : DLPNO-MP2, DLPNO-MP2 Gradient
   Christoph Reimann      : Effective Core Potentials
   Marius Retegan         : Local ZFS, SOC
   Christoph Riplinger    : Optimizer, TS searches, QM/MM, DLPNO-CCSD(T), (RO)-DLPNO pert. Triples
   Tobias Risthaus        : Range-separated hybrids, TD-DFT gradient, RPA, STAB
   Michael Roemelt        : Original ROCIS implementation
   Masaaki Saitow         : Open-shell DLPNO-CCSD energy and density
   Barbara Sandhoefer     : DKH picture change effects
   Avijit Sen             : IP-ROCIS
   Kantharuban Sivalingam : CASSCF convergence, NEVPT2, FIC-MRCI
   Bernardo de Souza      : ESD, SOC TD-DFT
   Georgi Stoychev        : AutoAux, RI-MP2 NMR
   Willem Van den Heuvel  : Paramagnetic NMR
   Boris Wezisla          : Elementary symmetry handling
   Frank Wennmohs         : Technical directorship


 We gratefully acknowledge several colleagues who have allowed us to
 interface, adapt or use parts of their codes:
   Stefan Grimme, W. Hujo, H. Kruse,             : VdW corrections, initial TS optimization,
                  C. Bannwarth                     DFT functionals, gCP, sTDA/sTD-DF
   Ed Valeev, F. Pavosevic, A. Kumar             : LibInt (2-el integral package), F12 methods
   Garnet Chan, S. Sharma, J. Yang, R. Olivares  : DMRG
   Ulf Ekstrom                                   : XCFun DFT Library
   Mihaly Kallay                                 : mrcc  (arbitrary order and MRCC methods)
   Andreas Klamt, Michael Diedenhofen            : otool_cosmo (COSMO solvation model)
   Jiri Pittner, Ondrej Demel                    : Mk-CCSD
   Frank Weinhold                                : gennbo (NPA and NBO analysis)
   Christopher J. Cramer and Donald G. Truhlar   : smd solvation model
   Lars Goerigk                                  : TD-DFT with DH, B97 family of functionals
   V. Asgeirsson, H. Jonsson                     : NEB implementation
   FAccTs GmbH                                   : IRC, NEB, NEB-TS, Multilevel, MM, QM/MM, CI optimization
   S Lehtola, MJT Oliveira, MAL Marques          : LibXC Library


 Your calculation uses the libint2 library for the computation of 2-el integrals
 For citations please refer to: http://libint.valeyev.net

 Your ORCA version has been built with support for libXC version: 4.2.3
 For citations please refer to: https://tddft.org/programs/libxc/

 This ORCA versions uses:
   CBLAS   interface :  Fast vector & matrix operations
   LAPACKE interface :  Fast linear algebra routines
   SCALAPACK package :  Parallel linear algebra routines


Your calculation utilizes the atom-pairwise dispersion correction
with the zero-damping scheme (D30)
Cite in your paper:
S.Grimme, J.Antony, S.Ehrlich and H.Krieg, J.Chem.Phys., 132, (2010), 154104 
   

XCFun DFT library Copyright 2009-2010 Ulf Ekstrom and contributors.
See http://admol.org/xcfun for more information. This is free soft-
ware; see the source code for copying conditions. There is ABSOLUTELY
NO WARRANTY; not even for MERCHANTABILITY or FITNESS FOR A PARTICULAR
PURPOSE. For details see the documentation. Scientific users of this 
library should cite U. Ekstrom, L. Visscher, R. Bast, A. J. Thorvald-
sen and K. Ruud; J.Chem.Theor.Comp. 2010, DOI: 10.1021/ct100117s
XCFun Version 0.99 
----- Orbital basis set information -----
Your calculation utilizes the basis: def2-TZVP
   F. Weigend and R. Ahlrichs, Phys. Chem. Chem. Phys. 7, 3297 (2005).

----- AuxJ basis set information -----
Your calculation utilizes the auxiliary basis: def2/J
   F. Weigend, Phys. Chem. Chem. Phys. 8, 1057 (2006).

================================================================================
                                        WARNINGS
                       Please study these warnings very carefully!
================================================================================


WARNING: Geometry Optimization
  ===> : Switching off AutoStart
         For restart on a previous wavefunction, please use MOREAD

INFO   : the flag for use of LIBINT has been found!

================================================================================
                                       INPUT FILE
================================================================================
NAME = AcOr.inp
|  1> # avogadro generated ORCA input file 
|  2> # Basic Mode
|  3> # 
|  4> ! wB97X-D3 OPT def2-TZVP def2/J CPCM
|  5> %cpcm
|  6>   epsilon 3
|  7> end
|  8> %pal
|  9>  nprocs 4
| 10> end
| 11> 
| 12> * xyz 0 1
| 13>    C        0.53925        1.74892        0.02139
| 14>    N        1.79177        1.00473        0.02703
| 15>    H        0.47360        2.38932        0.92648
| 16>    H       -0.34354        1.07239        0.02696
| 17>    H        0.47338        2.37486       -0.89376
| 18>    C        1.66463       -0.44882        0.03918
| 19>    H        1.10282       -0.77810       -0.86084
| 20>    H        1.10255       -0.76280        0.94451
| 21>    H        2.61205       -1.00334        0.04451
| 22>    C        3.06055        1.71029        0.02064
| 23>    C        3.08784        3.12854        0.01211
| 24>    C        4.31174        1.03899        0.02223
| 25>    C        4.28997        3.83877        0.00580
| 26>    H        2.18013        3.71387        0.01026
| 27>    C        5.50835        3.15875        0.00757
| 28>    H        4.26426        4.92220       -0.00054
| 29>    C        5.51761        1.75156        0.01574
| 30>    H        4.40116       -0.03210        0.02808
| 31>    C        6.72632        3.85088        0.00125
| 32>    N        6.70293        1.08248        0.01721
| 33>    C        7.93219        3.13786        0.00296
| 34>    H        6.73558        4.93552       -0.00505
| 35>    C        7.89904        1.73200        0.01103
| 36>    C        9.16178        3.79655       -0.00327
| 37>    C        9.09226        1.00059        0.01264
| 38>    C       10.35346        3.06815       -0.00163
| 39>    H        9.20458        4.87951       -0.00950
| 40>    C       10.36116        1.64540        0.00629
| 41>    H       11.26086        3.65199       -0.00688
| 42>    H        8.99555       -0.07480        0.01893
| 43>    N       11.60983        0.88572        0.00773
| 44>    C       11.48095       -0.59045        0.01430
| 45>    C       12.86092        1.68017        0.00231
| 46>    C       12.70962       -1.49671        0.01373
| 47>    H       10.90264       -0.88753       -0.88823
| 48>    H       10.90758       -0.88025        0.92232
| 49>    H       13.30203       -1.38502       -0.91301
| 50>    H       12.36106       -2.55170        0.01857
| 51>    H       13.30816       -1.37877        0.93565
| 52>    C       14.23208        1.00883        0.00550
| 53>    H       12.85661        2.33117        0.90426
| 54>    H       12.85517        2.32171       -0.90636
| 55>    H       14.40558        0.43286        0.93307
| 56>    H       15.00657        1.80559        0.00106
| 57>    H       14.40555        0.42288       -0.91571
| 58> *
| 59> 
| 60> 
| 61>                          ****END OF INPUT****
================================================================================

                       *****************************
                       * Geometry Optimization Run *
                       *****************************

Geometry optimization settings:
Update method            Update   .... BFGS
Choice of coordinates    CoordSys .... Z-matrix Internals
Initial Hessian          InHess   .... Almoef's Model

Convergence Tolerances:
Energy Change            TolE     ....  5.0000e-06 Eh
Max. Gradient            TolMAXG  ....  3.0000e-04 Eh/bohr
RMS Gradient             TolRMSG  ....  1.0000e-04 Eh/bohr
Max. Displacement        TolMAXD  ....  4.0000e-03 bohr
RMS Displacement         TolRMSD  ....  2.0000e-03 bohr
Strict Convergence                ....  False
------------------------------------------------------------------------------
                        ORCA OPTIMIZATION COORDINATE SETUP
------------------------------------------------------------------------------

The optimization will be done in new redundant internal coordinates
Making redundant internal coordinates   ...  (new redundants) done
Evaluating the initial hessian          ...  (Almloef) done
Evaluating the coordinates              ...  done
Calculating the B-matrix                .... done
Calculating the G-matrix                .... done
Diagonalizing the G-matrix              .... done
Small eigenvalue found = 2.558e-03
Small eigenvalue found = 9.690e-03
Small eigenvalue found = 1.106e-02
Small eigenvalue found = 1.171e-02
Small eigenvalue found = 1.878e-02
Small eigenvalue found = 2.452e-02
The first mode is                       ....  110
The number of degrees of freedom        ....  129

    -----------------------------------------------------------------
                    Redundant Internal Coordinates


    -----------------------------------------------------------------
         Definition                    Initial Value    Approx d2E/dq
    -----------------------------------------------------------------
      1. B(N   1,C   0)                  1.4569         0.437609   
      2. B(H   2,C   0)                  1.1107         0.333756   
      3. B(H   3,C   0)                  1.1122         0.331869   
      4. B(H   4,C   0)                  1.1107         0.333740   
      5. B(C   5,N   1)                  1.4592         0.434061   
      6. B(H   6,C   5)                  1.1109         0.333491   
      7. B(H   7,C   5)                  1.1109         0.333464   
      8. B(H   8,C   5)                  1.0978         0.349951   
      9. B(C   9,N   1)                  1.4518         0.445978   
     10. B(C  10,C   9)                  1.4185         0.562610   
     11. B(C  11,C   9)                  1.4199         0.559798   
     12. B(C  12,C  10)                  1.3963         0.610559   
     13. B(H  13,C  10)                  1.0801         0.373478   
     14. B(C  14,C  12)                  1.3953         0.612735   
     15. B(H  15,C  12)                  1.0838         0.368459   
     16. B(C  16,C  14)                  1.4072         0.586444   
     17. B(C  16,C  11)                  1.4007         0.600745   
     18. B(H  17,C  11)                  1.0748         0.380735   
     19. B(C  18,C  14)                  1.4009         0.600261   
     20. B(N  19,C  16)                  1.3611         0.622226   
     21. B(C  20,C  18)                  1.4009         0.600271   
     22. B(H  21,C  18)                  1.0847         0.367183   
     23. B(C  22,C  20)                  1.4063         0.588538   
     24. B(C  22,N  19)                  1.3611         0.622276   
     25. B(C  23,C  20)                  1.3949         0.613604   
     26. B(C  24,C  22)                  1.3995         0.603259   
     27. B(C  25,C  23)                  1.3967         0.609686   
     28. B(H  26,C  23)                  1.0838         0.368364   
     29. B(C  27,C  25)                  1.4228         0.553885   
     30. B(C  27,C  24)                  1.4234         0.552751   
     31. B(H  28,C  25)                  1.0790         0.374930   
     32. B(H  29,C  24)                  1.0797         0.373921   
     33. B(N  30,C  27)                  1.4616         0.430162   
     34. B(C  31,N  30)                  1.4818         0.399406   
     35. B(C  32,N  30)                  1.4820         0.399072   
     36. B(C  33,C  31)                  1.5267         0.378074   
     37. B(H  34,C  31)                  1.1123         0.331750   
     38. B(H  35,C  31)                  1.1123         0.331762   
     39. B(H  36,C  33)                  1.1056         0.340089   
     40. B(H  37,C  33)                  1.1111         0.333254   
     41. B(H  38,C  33)                  1.1055         0.340187   
     42. B(C  39,C  32)                  1.5267         0.378143   
     43. B(H  40,C  32)                  1.1124         0.331709   
     44. B(H  41,C  32)                  1.1123         0.331734   
     45. B(H  42,C  39)                  1.1055         0.340112   
     46. B(H  43,C  39)                  1.1112         0.333166   
     47. B(H  44,C  39)                  1.1055         0.340210   
     48. A(H   2,C   0,H   3)          107.4409         0.283766   
     49. A(H   2,C   0,H   4)          110.0589         0.284014   
     50. A(N   1,C   0,H   2)          110.0094         0.326767   
     51. A(N   1,C   0,H   4)          110.0009         0.326765   
     52. A(H   3,C   0,H   4)          107.4485         0.283764   
     53. A(N   1,C   0,H   3)          111.8166         0.326462   
     54. A(C   0,N   1,C   9)          120.2033         0.380136   
     55. A(C   5,N   1,C   9)          124.0778         0.379600   
     56. A(C   0,N   1,C   5)          115.7189         0.378356   
     57. A(H   7,C   5,H   8)          106.8542         0.286080   
     58. A(H   6,C   5,H   8)          106.8979         0.286083   
     59. A(N   1,C   5,H   7)          109.4156         0.326282   
     60. A(H   6,C   5,H   7)          108.6986         0.283942   
     61. A(N   1,C   5,H   6)          109.4261         0.326287   
     62. A(N   1,C   5,H   8)          115.3427         0.328888   
     63. A(N   1,C   9,C  11)          122.7063         0.399377   
     64. A(C  10,C   9,C  11)          117.1124         0.418848   
     65. A(N   1,C   9,C  10)          120.1813         0.399729   
     66. A(C  12,C  10,H  13)          116.6085         0.354174   
     67. A(C   9,C  10,H  13)          121.7133         0.349311   
     68. A(C   9,C  10,C  12)          121.6782         0.425392   
     69. A(C  16,C  11,H  17)          115.8082         0.354357   
     70. A(C   9,C  11,H  17)          122.9870         0.350151   
     71. A(C   9,C  11,C  16)          121.2048         0.423781   
     72. A(C  14,C  12,H  15)          120.5267         0.353576   
     73. A(C  10,C  12,H  15)          119.2165         0.353363   
     74. A(C  10,C  12,C  14)          120.2569         0.431953   
     75. A(C  16,C  14,C  18)          119.2319         0.427261   
     76. A(C  12,C  14,C  18)          121.2238         0.430636   
     77. A(C  12,C  14,C  16)          119.5443         0.428840   
     78. A(C  11,C  16,C  14)          120.2034         0.427323   
     79. A(C  14,C  16,N  19)          119.8204         0.427218   
     80. A(C  11,C  16,N  19)          119.9762         0.429067   
     81. A(C  20,C  18,H  21)          120.1062         0.352142   
     82. A(C  14,C  18,H  21)          120.0980         0.352141   
     83. A(C  14,C  18,C  20)          119.7958         0.429050   
     84. A(C  16,N  19,C  22)          122.0526         0.428968   
     85. A(C  22,C  20,C  23)          119.5295         0.429223   
     86. A(C  18,C  20,C  23)          121.2259         0.430747   
     87. A(C  18,C  20,C  22)          119.2446         0.427536   
     88. A(C  20,C  22,C  24)          120.1562         0.427916   
     89. A(N  19,C  22,C  24)          119.9890         0.429395   
     90. A(N  19,C  22,C  20)          119.8548         0.427497   
     91. A(C  25,C  23,H  26)          119.1715         0.353263   
     92. A(C  20,C  23,H  26)          120.4419         0.353646   
     93. A(C  20,C  23,C  25)          120.3865         0.431953   
     94. A(C  27,C  24,H  29)          122.0776         0.348341   
     95. A(C  22,C  24,H  29)          116.3682         0.353524   
     96. A(C  22,C  24,C  27)          121.5541         0.423138   
     97. A(C  27,C  25,H  28)          122.4488         0.348619   
     98. A(C  23,C  25,H  28)          115.8064         0.354321   
     99. A(C  23,C  25,C  27)          121.7448         0.424096   
    100. A(C  25,C  27,N  30)          121.6259         0.396112   
    101. A(C  24,C  27,N  30)          121.7453         0.395969   
    102. A(C  24,C  27,C  25)          116.6288         0.416742   
    103. A(C  31,N  30,C  32)          127.4059         0.367095   
    104. A(C  27,N  30,C  32)          116.2678         0.371803   
    105. A(C  27,N  30,C  31)          116.3263         0.371857   
    106. A(C  33,C  31,H  35)          105.0991         0.320620   
    107. A(N  30,C  31,H  35)          107.9388         0.321586   
    108. A(C  33,C  31,H  34)          105.0445         0.320618   
    109. A(N  30,C  31,H  34)          107.9200         0.321584   
    110. A(N  30,C  31,C  33)          121.4221         0.365992   
    111. A(H  34,C  31,H  35)          108.9524         0.283486   
    112. A(H  40,C  32,H  41)          108.9549         0.283477   
    113. A(N  30,C  32,H  41)          107.9264         0.321538   
    114. A(C  39,C  32,H  40)          105.0189         0.320621   
    115. A(N  30,C  32,H  40)          107.9079         0.321534   
    116. A(N  30,C  32,C  39)          121.4963         0.365951   
    117. A(C  39,C  32,H  41)          105.0681         0.320625   
    118. A(H  37,C  33,H  38)          105.5166         0.284794   
    119. A(H  36,C  33,H  38)          113.4633         0.285695   
    120. A(C  31,C  33,H  38)          111.8442         0.321939   
    121. A(H  36,C  33,H  37)          105.5260         0.284781   
    122. A(C  31,C  33,H  37)          108.1289         0.320856   
    123. A(C  31,C  33,H  36)          111.8128         0.321924   
    124. A(H  43,C  39,H  44)          105.5076         0.284785   
    125. A(H  42,C  39,H  44)          113.4781         0.285701   
    126. A(C  32,C  39,H  44)          111.8559         0.321952   
    127. A(H  42,C  39,H  43)          105.5178         0.284772   
    128. A(C  32,C  39,H  43)          108.1002         0.320851   
    129. A(C  32,C  39,H  42)          111.8264         0.321937   
    130. D(C   5,N   1,C   0,H   2)    119.2736         0.016328   
    131. D(C   9,N   1,C   0,H   2)    -60.7246         0.016328   
    132. D(C   9,N   1,C   0,H   4)     60.6746         0.016328   
    133. D(C   5,N   1,C   0,H   3)     -0.0249         0.016328   
    134. D(C   5,N   1,C   0,H   4)   -119.3272         0.016328   
    135. D(C   9,N   1,C   0,H   3)    179.9770         0.016328   
    136. D(H   6,C   5,N   1,C   0)     59.5308         0.016064   
    137. D(H   8,C   5,N   1,C   0)   -179.9345         0.016064   
    138. D(H   7,C   5,N   1,C   9)    120.5334         0.016064   
    139. D(H   7,C   5,N   1,C   0)    -59.4648         0.016064   
    140. D(H   8,C   5,N   1,C   9)      0.0636         0.016064   
    141. D(H   6,C   5,N   1,C   9)   -120.4711         0.016064   
    142. D(C  11,C   9,N   1,C   0)   -179.8347         0.015663   
    143. D(C  10,C   9,N   1,C   5)   -179.8465         0.015663   
    144. D(C  10,C   9,N   1,C   0)      0.1515         0.015663   
    145. D(C  11,C   9,N   1,C   5)      0.1672         0.015663   
    146. D(H  13,C  10,C   9,C  11)    179.9932         0.021690   
    147. D(C  12,C  10,C   9,C  11)     -0.0127         0.021690   
    148. D(H  13,C  10,C   9,N   1)      0.0062         0.021690   
    149. D(C  12,C  10,C   9,N   1)   -179.9997         0.021690   
    150. D(H  17,C  11,C   9,C  10)   -179.9759         0.021465   
    151. D(H  17,C  11,C   9,N   1)      0.0108         0.021465   
    152. D(C  16,C  11,C   9,N   1)    179.9917         0.021465   
    153. D(C  16,C  11,C   9,C  10)      0.0050         0.021465   
    154. D(H  15,C  12,C  10,H  13)      0.0002         0.025749   
    155. D(C  14,C  12,C  10,H  13)   -179.9957         0.025749   
    156. D(H  15,C  12,C  10,C   9)   -179.9942         0.025749   
    157. D(C  14,C  12,C  10,C   9)      0.0099         0.025749   
    158. D(C  18,C  14,C  12,C  10)    179.9958         0.025943   
    159. D(C  16,C  14,C  12,H  15)   -179.9949         0.025943   
    160. D(C  16,C  14,C  12,C  10)      0.0010         0.025943   
    161. D(C  18,C  14,C  12,H  15)     -0.0001         0.025943   
    162. D(N  19,C  16,C  14,C  18)     -0.0093         0.023653   
    163. D(C  11,C  16,C  14,C  18)    179.9965         0.023653   
    164. D(C  11,C  16,C  14,C  12)     -0.0086         0.023653   
    165. D(N  19,C  16,C  11,H  17)     -0.0065         0.024883   
    166. D(N  19,C  16,C  11,C   9)   -179.9887         0.024883   
    167. D(N  19,C  16,C  14,C  12)    179.9857         0.023653   
    168. D(C  14,C  16,C  11,H  17)    179.9877         0.024883   
    169. D(C  14,C  16,C  11,C   9)      0.0055         0.024883   
    170. D(H  21,C  18,C  14,C  16)   -179.9983         0.024840   
    171. D(C  20,C  18,C  14,C  16)      0.0079         0.024840   
    172. D(H  21,C  18,C  14,C  12)      0.0069         0.024840   
    173. D(C  20,C  18,C  14,C  12)   -179.9869         0.024840   
    174. D(C  22,N  19,C  16,C  14)      0.0023         0.028420   
    175. D(C  22,N  19,C  16,C  11)    179.9965         0.028420   
    176. D(C  23,C  20,C  18,C  14)    179.9963         0.024841   
    177. D(C  22,C  20,C  18,H  21)   -179.9935         0.024841   
    178. D(C  22,C  20,C  18,C  14)      0.0002         0.024841   
    179. D(C  23,C  20,C  18,H  21)      0.0025         0.024841   
    180. D(C  24,C  22,C  20,C  23)     -0.0069         0.023831   
    181. D(N  19,C  22,C  20,C  23)    179.9966         0.023831   
    182. D(N  19,C  22,C  20,C  18)     -0.0073         0.023831   
    183. D(C  24,C  22,C  20,C  18)    179.9891         0.023831   
    184. D(C  24,C  22,N  19,C  16)   -179.9903         0.028425   
    185. D(C  20,C  22,N  19,C  16)      0.0061         0.028425   
    186. D(H  26,C  23,C  20,C  22)   -179.9987         0.026021   
    187. D(H  26,C  23,C  20,C  18)      0.0053         0.026021   
    188. D(C  25,C  23,C  20,C  22)      0.0049         0.026021   
    189. D(C  25,C  23,C  20,C  18)   -179.9911         0.026021   
    190. D(H  29,C  24,C  22,N  19)     -0.0015         0.025103   
    191. D(C  27,C  24,C  22,C  20)      0.0015         0.025103   
    192. D(C  27,C  24,C  22,N  19)    179.9980         0.025103   
    193. D(H  29,C  24,C  22,C  20)   -179.9979         0.025103   
    194. D(H  28,C  25,C  23,H  26)     -0.0026         0.025671   
    195. D(H  28,C  25,C  23,C  20)    179.9939         0.025671   
    196. D(C  27,C  25,C  23,H  26)   -179.9938         0.025671   
    197. D(C  27,C  25,C  23,C  20)      0.0027         0.025671   
    198. D(N  30,C  27,C  25,H  28)     -0.0025         0.020998   
    199. D(N  30,C  27,C  25,C  23)    179.9881         0.020998   
    200. D(C  24,C  27,C  25,H  28)   -179.9985         0.020998   
    201. D(C  24,C  27,C  25,C  23)     -0.0078         0.020998   
    202. D(N  30,C  27,C  24,H  29)      0.0092         0.020909   
    203. D(N  30,C  27,C  24,C  22)   -179.9902         0.020909   
    204. D(C  25,C  27,C  24,H  29)   -179.9949         0.020909   
    205. D(C  25,C  27,C  24,C  22)      0.0057         0.020909   
    206. D(C  32,N  30,C  27,C  25)      0.0783         0.014575   
    207. D(C  32,N  30,C  27,C  24)   -179.9260         0.014575   
    208. D(C  31,N  30,C  27,C  25)   -179.9157         0.014575   
    209. D(C  31,N  30,C  27,C  24)      0.0800         0.014575   
    210. D(H  35,C  31,N  30,C  32)    121.1301         0.013621   
    211. D(H  35,C  31,N  30,C  27)    -58.8767         0.013621   
    212. D(H  34,C  31,N  30,C  32)   -121.2585         0.013621   
    213. D(H  34,C  31,N  30,C  27)     58.7347         0.013621   
    214. D(C  33,C  31,N  30,C  32)     -0.1108         0.013621   
    215. D(C  33,C  31,N  30,C  27)    179.8824         0.013621   
    216. D(H  41,C  32,N  30,C  31)    121.1328         0.013599   
    217. D(H  41,C  32,N  30,C  27)    -58.8604         0.013599   
    218. D(H  40,C  32,N  30,C  31)   -121.2659         0.013599   
    219. D(H  40,C  32,N  30,C  27)     58.7409         0.013599   
    220. D(C  39,C  32,N  30,C  31)     -0.1092         0.013599   
    221. D(C  39,C  32,N  30,C  27)    179.8976         0.013599   
    222. D(H  38,C  33,C  31,H  35)    -58.3064         0.011398   
    223. D(H  38,C  33,C  31,H  34)   -173.1948         0.011398   
    224. D(H  38,C  33,C  31,N  30)     64.2868         0.011398   
    225. D(H  37,C  33,C  31,H  35)     57.4479         0.011398   
    226. D(H  37,C  33,C  31,H  34)    -57.4405         0.011398   
    227. D(H  37,C  33,C  31,N  30)   -179.9589         0.011398   
    228. D(H  36,C  33,C  31,H  35)    173.1961         0.011398   
    229. D(H  36,C  33,C  31,H  34)     58.3077         0.011398   
    230. D(H  36,C  33,C  31,N  30)    -64.2107         0.011398   
    231. D(H  44,C  39,C  32,H  41)    -58.2946         0.011402   
    232. D(H  44,C  39,C  32,H  40)   -173.1620         0.011402   
    233. D(H  44,C  39,C  32,N  30)     64.3065         0.011402   
    234. D(H  43,C  39,C  32,H  41)     57.4381         0.011402   
    235. D(H  43,C  39,C  32,H  40)    -57.4294         0.011402   
    236. D(H  43,C  39,C  32,N  30)   -179.9609         0.011402   
    237. D(H  42,C  39,C  32,H  41)    173.1667         0.011402   
    238. D(H  42,C  39,C  32,H  40)     58.2992         0.011402   
    239. D(H  42,C  39,C  32,N  30)    -64.2323         0.011402   
    -----------------------------------------------------------------

Number of atoms                         .... 45
Number of degrees of freedom            .... 239

         *************************************************************
         *                GEOMETRY OPTIMIZATION CYCLE   1            *
         *************************************************************
---------------------------------
CARTESIAN COORDINATES (ANGSTROEM)
---------------------------------
  C      0.539250    1.748920    0.021390
  N      1.791770    1.004730    0.027030
  H      0.473600    2.389320    0.926480
  H     -0.343540    1.072390    0.026960
  H      0.473380    2.374860   -0.893760
  C      1.664630   -0.448820    0.039180
  H      1.102820   -0.778100   -0.860840
  H      1.102550   -0.762800    0.944510
  H      2.612050   -1.003340    0.044510
  C      3.060550    1.710290    0.020640
  C      3.087840    3.128540    0.012110
  C      4.311740    1.038990    0.022230
  C      4.289970    3.838770    0.005800
  H      2.180130    3.713870    0.010260
  C      5.508350    3.158750    0.007570
  H      4.264260    4.922200   -0.000540
  C      5.517610    1.751560    0.015740
  H      4.401160   -0.032100    0.028080
  C      6.726320    3.850880    0.001250
  N      6.702930    1.082480    0.017210
  C      7.932190    3.137860    0.002960
  H      6.735580    4.935520   -0.005050
  C      7.899040    1.732000    0.011030
  C      9.161780    3.796550   -0.003270
  C      9.092260    1.000590    0.012640
  C     10.353460    3.068150   -0.001630
  H      9.204580    4.879510   -0.009500
  C     10.361160    1.645400    0.006290
  H     11.260860    3.651990   -0.006880
  H      8.995550   -0.074800    0.018930
  N     11.609830    0.885720    0.007730
  C     11.480950   -0.590450    0.014300
  C     12.860920    1.680170    0.002310
  C     12.709620   -1.496710    0.013730
  H     10.902640   -0.887530   -0.888230
  H     10.907580   -0.880250    0.922320
  H     13.302030   -1.385020   -0.913010
  H     12.361060   -2.551700    0.018570
  H     13.308160   -1.378770    0.935650
  C     14.232080    1.008830    0.005500
  H     12.856610    2.331170    0.904260
  H     12.855170    2.321710   -0.906360
  H     14.405580    0.432860    0.933070
  H     15.006570    1.805590    0.001060
  H     14.405550    0.422880   -0.915710

----------------------------
CARTESIAN COORDINATES (A.U.)
----------------------------
  NO LB      ZA    FRAG     MASS         X           Y           Z
   0 C     6.0000    0    12.011    1.019035    3.304980    0.040421
   1 N     7.0000    0    14.007    3.385955    1.898665    0.051079
   2 H     1.0000    0     1.008    0.894974    4.515160    1.750793
   3 H     1.0000    0     1.008   -0.649197    2.026523    0.050947
   4 H     1.0000    0     1.008    0.894559    4.487835   -1.688962
   5 C     6.0000    0    12.011    3.145695   -0.848147    0.074039
   6 H     1.0000    0     1.008    2.084028   -1.470396   -1.626752
   7 H     1.0000    0     1.008    2.083518   -1.441483    1.784865
   8 H     1.0000    0     1.008    4.936059   -1.896038    0.084112
   9 C     6.0000    0    12.011    5.783601    3.231980    0.039004
  10 C     6.0000    0    12.011    5.835172    5.912084    0.022885
  11 C     6.0000    0    12.011    8.148008    1.963407    0.042009
  12 C     6.0000    0    12.011    8.106868    7.254224    0.010960
  13 H     1.0000    0     1.008    4.119849    7.018197    0.019389
  14 C     6.0000    0    12.011   10.409273    5.969172    0.014305
  15 H     1.0000    0     1.008    8.058284    9.301610   -0.001020
  16 C     6.0000    0    12.011   10.426772    3.309969    0.029744
  17 H     1.0000    0     1.008    8.316987   -0.060660    0.053064
  18 C     6.0000    0    12.011   12.710903    7.277109    0.002362
  19 N     7.0000    0    14.007   12.666702    2.045591    0.032522
  20 C     6.0000    0    12.011   14.989667    5.929696    0.005594
  21 H     1.0000    0     1.008   12.728402    9.326781   -0.009543
  22 C     6.0000    0    12.011   14.927022    3.273006    0.020844
  23 C     6.0000    0    12.011   17.313255    7.174440   -0.006179
  24 C     6.0000    0    12.011   17.181881    1.890841    0.023886
  25 C     6.0000    0    12.011   19.565204    5.797963   -0.003080
  26 H     1.0000    0     1.008   17.394135    9.220938   -0.017952
  27 C     6.0000    0    12.011   19.579755    3.109355    0.011886
  28 H     1.0000    0     1.008   21.279941    6.901261   -0.013001
  29 H     1.0000    0     1.008   16.999126   -0.141352    0.035773
  30 N     7.0000    0    14.007   21.939399    1.673768    0.014608
  31 C     6.0000    0    12.011   21.695851   -1.115789    0.027023
  32 C     6.0000    0    12.011   24.303617    3.175061    0.004365
  33 C     6.0000    0    12.011   24.017701   -2.828372    0.025946
  34 H     1.0000    0     1.008   20.603004   -1.677189   -1.678511
  35 H     1.0000    0     1.008   20.612339   -1.663431    1.742932
  36 H     1.0000    0     1.008   25.137194   -2.617308   -1.725339
  37 H     1.0000    0     1.008   23.359018   -4.822014    0.035092
  38 H     1.0000    0     1.008   25.148778   -2.605498    1.768122
  39 C     6.0000    0    12.011   26.894734    1.906412    0.010393
  40 H     1.0000    0     1.008   24.295472    4.405273    1.708804
  41 H     1.0000    0     1.008   24.292751    4.387396   -1.712772
  42 H     1.0000    0     1.008   27.222601    0.817987    1.763247
  43 H     1.0000    0     1.008   28.358308    3.412071    0.002003
  44 H     1.0000    0     1.008   27.222544    0.799127   -1.730441

--------------------------------
INTERNAL COORDINATES (ANGSTROEM)
--------------------------------
 C      0   0   0     0.000000000000     0.00000000     0.00000000
 N      1   0   0     1.456934080904     0.00000000     0.00000000
 H      1   2   0     1.110679967677   110.00941217     0.00000000
 H      1   2   3     1.112223920755   111.81659303   240.70157383
 H      1   2   3     1.110693145293   110.00090207   121.39919020
 C      2   1   3     1.459150370798   115.71886809   119.27357289
 H      6   2   1     1.110896842601   109.42610211    59.53082489
 H      6   2   1     1.110918437915   109.41559071   300.53524818
 H      6   2   1     1.097782080242   115.34265940   180.06546759
 C      2   1   3     1.451777680673   120.20331532   299.27537782
 C     10   2   1     1.418538179782   120.18132039     0.15154430
 C     10   2   1     1.419902332627   122.70628608   180.16525135
 C     11  10   2     1.396274688555   121.67818359   180.00029123
 H     11  10   2     1.080070403029   121.71329439     0.00000000
 C     13  11  10     1.395306474471   120.25685142     0.00000000
 H     13  11  10     1.083753553443   119.21647897   180.00583856
 C     12  10   2     1.400685754158   121.20480484   179.99165818
 H     12  10   2     1.074832055253   122.98697462     0.00000000
 C     15  13  11     1.400904993281   121.22377523   179.99583819
 N     17  12  10     1.361122224380   119.97618682   180.01126084
 C     19  15  13     1.400900746449   119.79577469   180.01308190
 H     19  15  13     1.084697822990   120.09804532     0.00000000
 C     20  17  12     1.361100126699   122.05261060   179.99648136
 C     21  19  15     1.394920390954   121.22591758   179.99625990
 C     23  20  17     1.399548908970   119.98902231   180.00966971
 C     24  21  19     1.396664051231   120.38653347   180.00887637
 H     24  21  19     1.083823331775   120.44194534     0.00000000
 C     26  24  21     1.422792879832   121.74480675     0.00000000
 H     26  24  21     1.079014118582   115.80636379   179.99390398
 H     25  23  20     1.079748137438   116.36824777     0.00000000
 N     28  26  24     1.461606152457   121.62585861   179.98809468
 C     31  28  26     1.481799948779   116.32628402   180.08429896
 C     31  28  26     1.482027788876   116.26779489     0.07827439
 C     32  31  28     1.526740803607   121.42214532   179.88244858
 H     32  31  28     1.112321618688   107.91997071    58.73474705
 H     32  31  28     1.112311789608   107.93884582   301.12329847
 H     34  32  31     1.105563789114   111.81276767   295.78933327
 H     34  32  31     1.111090185043   108.12886768   180.04113854
 H     34  32  31     1.105484717941   111.84417123    64.28682812
 C     33  31  28     1.526691624821   121.49632523   179.89757081
 H     33  31  28     1.112354879793   107.90789819    58.74086943
 H     33  31  28     1.112334393517   107.92637492   301.13955746
 H     40  33  31     1.105545022059   111.82641780   295.76772699
 H     40  33  31     1.111161991476   108.10023669   180.03910433
 H     40  33  31     1.105466918320   111.85588066    64.30645215

---------------------------
INTERNAL COORDINATES (A.U.)
---------------------------
 C      0   0   0     0.000000000000     0.00000000     0.00000000
 N      1   0   0     2.753206408085     0.00000000     0.00000000
 H      1   2   0     2.098880961343   110.00941217     0.00000000
 H      1   2   3     2.101798609823   111.81659303   240.70157383
 H      1   2   3     2.098905863427   110.00090207   121.39919020
 C      2   1   3     2.757394589018   115.71886809   119.27357289
 H      6   2   1     2.099290795553   109.42610211    59.53082489
 H      6   2   1     2.099331604783   109.41559071   300.53524818
 H      6   2   1     2.074507486383   115.34265940   180.06546759
 C      2   1   3     2.743462223811   120.20331532   299.27537782
 C     10   2   1     2.680648670300   120.18132039     0.15154430
 C     10   2   1     2.683226545581   122.70628608   180.16525135
 C     11  10   2     2.638576769096   121.67818359   180.00029123
 H     11  10   2     2.041037267079   121.71329439     0.00000000
 C     13  11  10     2.636747109637   120.25685142     0.00000000
 H     13  11  10     2.047997412671   119.21647897   180.00583856
 C     12  10   2     2.646912475043   121.20480484   179.99165818
 H     12  10   2     2.031138224388   122.98697462     0.00000000
 C     15  13  11     2.647326776944   121.22377523   179.99583819
 N     17  12  10     2.572148238871   119.97618682   180.01126084
 C     19  15  13     2.647318751594   119.79577469   180.01308190
 H     19  15  13     2.049781823512   120.09804532     0.00000000
 C     20  17  12     2.572106480307   122.05261060   179.99648136
 C     21  19  15     2.636017517526   121.22591758   179.99625990
 C     23  20  17     2.644764148982   119.98902231   180.00966971
 C     24  21  19     2.639312557919   120.38653347   180.00887637
 H     24  21  19     2.048129274609   120.44194534     0.00000000
 C     26  24  21     2.688688888175   121.74480675     0.00000000
 H     26  24  21     2.039041178755   115.80636379   179.99390398
 H     25  23  20     2.040428273369   116.36824777     0.00000000
 N     28  26  24     2.762035343798   121.62585861   179.98809468
 C     31  28  26     2.800196088450   116.32628402   180.08429896
 C     31  28  26     2.800626643836   116.26779489     0.07827439
 C     32  31  28     2.885121996301   121.42214532   179.88244858
 H     32  31  28     2.101983232160   107.91997071    58.73474705
 H     32  31  28     2.101964657890   107.93884582   301.12329847
 H     34  32  31     2.089212785006   111.81276767   295.78933327
 H     34  32  31     2.099656159820   108.12886768   180.04113854
 H     34  32  31     2.089063362143   111.84417123    64.28682812
 C     33  31  28     2.885029061864   121.49632523   179.89757081
 H     33  31  28     2.102046086540   107.90789819    58.74086943
 H     33  31  28     2.102007373088   107.92637492   301.13955746
 H     40  33  31     2.089177320412   111.82641780   295.76772699
 H     40  33  31     2.099791854311   108.10023669   180.03910433
 H     40  33  31     2.089029725735   111.85588066    64.30645215

---------------------
BASIS SET INFORMATION
---------------------
There are 3 groups of distinct atoms

 Group   1 Type C   : 11s6p2d1f contracted to 5s3p2d1f pattern {62111/411/11/1}
 Group   2 Type N   : 11s6p2d1f contracted to 5s3p2d1f pattern {62111/411/11/1}
 Group   3 Type H   : 5s1p contracted to 3s1p pattern {311/1}

Atom   0C    basis set group =>   1
Atom   1N    basis set group =>   2
Atom   2H    basis set group =>   3
Atom   3H    basis set group =>   3
Atom   4H    basis set group =>   3
Atom   5C    basis set group =>   1
Atom   6H    basis set group =>   3
Atom   7H    basis set group =>   3
Atom   8H    basis set group =>   3
Atom   9C    basis set group =>   1
Atom  10C    basis set group =>   1
Atom  11C    basis set group =>   1
Atom  12C    basis set group =>   1
Atom  13H    basis set group =>   3
Atom  14C    basis set group =>   1
Atom  15H    basis set group =>   3
Atom  16C    basis set group =>   1
Atom  17H    basis set group =>   3
Atom  18C    basis set group =>   1
Atom  19N    basis set group =>   2
Atom  20C    basis set group =>   1
Atom  21H    basis set group =>   3
Atom  22C    basis set group =>   1
Atom  23C    basis set group =>   1
Atom  24C    basis set group =>   1
Atom  25C    basis set group =>   1
Atom  26H    basis set group =>   3
Atom  27C    basis set group =>   1
Atom  28H    basis set group =>   3
Atom  29H    basis set group =>   3
Atom  30N    basis set group =>   2
Atom  31C    basis set group =>   1
Atom  32C    basis set group =>   1
Atom  33C    basis set group =>   1
Atom  34H    basis set group =>   3
Atom  35H    basis set group =>   3
Atom  36H    basis set group =>   3
Atom  37H    basis set group =>   3
Atom  38H    basis set group =>   3
Atom  39C    basis set group =>   1
Atom  40H    basis set group =>   3
Atom  41H    basis set group =>   3
Atom  42H    basis set group =>   3
Atom  43H    basis set group =>   3
Atom  44H    basis set group =>   3
---------------------------------
AUXILIARY/J BASIS SET INFORMATION
---------------------------------
There are 3 groups of distinct atoms

 Group   1 Type C   : 12s5p4d2f1g contracted to 6s4p3d1f1g pattern {711111/2111/211/2/1}
 Group   2 Type N   : 12s5p4d2f1g contracted to 6s4p3d1f1g pattern {711111/2111/211/2/1}
 Group   3 Type H   : 5s2p1d contracted to 3s1p1d pattern {311/2/1}

Atom   0C    basis set group =>   1
Atom   1N    basis set group =>   2
Atom   2H    basis set group =>   3
Atom   3H    basis set group =>   3
Atom   4H    basis set group =>   3
Atom   5C    basis set group =>   1
Atom   6H    basis set group =>   3
Atom   7H    basis set group =>   3
Atom   8H    basis set group =>   3
Atom   9C    basis set group =>   1
Atom  10C    basis set group =>   1
Atom  11C    basis set group =>   1
Atom  12C    basis set group =>   1
Atom  13H    basis set group =>   3
Atom  14C    basis set group =>   1
Atom  15H    basis set group =>   3
Atom  16C    basis set group =>   1
Atom  17H    basis set group =>   3
Atom  18C    basis set group =>   1
Atom  19N    basis set group =>   2
Atom  20C    basis set group =>   1
Atom  21H    basis set group =>   3
Atom  22C    basis set group =>   1
Atom  23C    basis set group =>   1
Atom  24C    basis set group =>   1
Atom  25C    basis set group =>   1
Atom  26H    basis set group =>   3
Atom  27C    basis set group =>   1
Atom  28H    basis set group =>   3
Atom  29H    basis set group =>   3
Atom  30N    basis set group =>   2
Atom  31C    basis set group =>   1
Atom  32C    basis set group =>   1
Atom  33C    basis set group =>   1
Atom  34H    basis set group =>   3
Atom  35H    basis set group =>   3
Atom  36H    basis set group =>   3
Atom  37H    basis set group =>   3
Atom  38H    basis set group =>   3
Atom  39C    basis set group =>   1
Atom  40H    basis set group =>   3
Atom  41H    basis set group =>   3
Atom  42H    basis set group =>   3
Atom  43H    basis set group =>   3
Atom  44H    basis set group =>   3


           ************************************************************
           *        Program running with 4 parallel MPI-processes     *
           *              working on a common directory               *
           ************************************************************
------------------------------------------------------------------------------
                           ORCA GTO INTEGRAL CALCULATION
------------------------------------------------------------------------------

                         BASIS SET STATISTICS AND STARTUP INFO

 # of primitive gaussian shells          ...  578
 # of primitive gaussian functions       ... 1196
 # of contracted shells                  ...  334
 # of contracted basis functions         ...  820
 Highest angular momentum                ...    3
 Maximum contraction depth               ...    6
 Integral package used                   ... LIBINT
 Integral threshhold            Thresh   ...  2.500e-11
 Primitive cut-off              TCut     ...  2.500e-12


------------------------------ INTEGRAL EVALUATION ----------------------------


 * One electron integrals 
 Pre-screening matrix                    ... done
 Shell pair data                         ... done (   0.011 sec)



           ************************************************************
           *        Program running with 4 parallel MPI-processes     *
           *              working on a common directory               *
           ************************************************************
-------------------------------------------------------------------------------
                                 ORCA SCF
-------------------------------------------------------------------------------

------------
SCF SETTINGS
------------
Hamiltonian:
 Density Functional     Method          .... DFT(GTOs)
 Exchange Functional    Exchange        .... WB97X-D3
 Correlation Functional Correlation     .... WB97X-D3
 Gradients option       PostSCFGGA      .... off
 Hybrid DFT is turned on
   Fraction HF Exchange ScalHFX         ....  0.195728
   Scaling of DF-GGA-X  ScalDFX         ....  0.000000
   Scaling of DF-GGA-C  ScalDFC         ....  1.000000
   Scaling of DF-LDA-C  ScalLDAC        ....  1.000000
   Perturbative correction              ....  0.000000
   Density functional embedding theory  .... OFF
 Long-range corrected/Screened/Range-Separated Hybrid DFT is turned on
   Amount of maximum screened exact exchange              ....  0.804272
   Range separation parameter mu (erf(mu*r12)/r12)        ....  0.250000


General Settings:
 Integral files         IntName         .... AcOr
 Hartree-Fock type      HFTyp           .... RHF
 Total Charge           Charge          ....    0
 Multiplicity           Mult            ....    1
 Number of Electrons    NEL             ....  158
 Basis Dimension        Dim             ....  820
 Nuclear Repulsion      ENuc            ....   1653.9161796840 Eh

Convergence Acceleration:
 DIIS                   CNVDIIS         .... on
   Start iteration      DIISMaxIt       ....    12
   Startup error        DIISStart       ....  0.200000
   # of expansion vecs  DIISMaxEq       ....     5
   Bias factor          DIISBfac        ....   1.050
   Max. coefficient     DIISMaxC        ....  10.000
 Newton-Raphson         CNVNR           .... off
 SOSCF                  CNVSOSCF        .... on
   Start iteration      SOSCFMaxIt      ....   150
   Startup grad/error   SOSCFStart      ....  0.003300
 Level Shifting         CNVShift        .... on
   Level shift para.    LevelShift      ....    0.2500
   Turn off err/grad.   ShiftErr        ....    0.0010
 Zerner damping         CNVZerner       .... off
 Static damping         CNVDamp         .... on
   Fraction old density DampFac         ....    0.7000
   Max. Damping (<1)    DampMax         ....    0.9800
   Min. Damping (>=0)   DampMin         ....    0.0000
   Turn off err/grad.   DampErr         ....    0.1000
 Fernandez-Rico         CNVRico         .... off

SCF Procedure:
 Maximum # iterations   MaxIter         ....   125
 SCF integral mode      SCFMode         .... Direct
   Integral package                     .... LIBINT
 Reset frequency        DirectResetFreq ....    20
 Integral Threshold     Thresh          ....  2.500e-11 Eh
 Primitive CutOff       TCut            ....  2.500e-12 Eh

Convergence Tolerance:
 Convergence Check Mode ConvCheckMode   .... Total+1el-Energy
 Convergence forced     ConvForced      .... 0
 Energy Change          TolE            ....  1.000e-08 Eh
 1-El. energy change                    ....  1.000e-05 Eh
 Orbital Gradient       TolG            ....  1.000e-05
 Orbital Rotation angle TolX            ....  1.000e-05
 DIIS Error             TolErr          ....  5.000e-07


Diagonalization of the overlap matrix:
Smallest eigenvalue                        ... 5.532e-06
Time for diagonalization                   ...    0.116 sec
Threshold for overlap eigenvalues          ... 1.000e-08
Number of eigenvalues below threshold      ... 0
Time for construction of square roots      ...    0.061 sec
Total time needed                          ...    0.178 sec

-------------------
DFT GRID GENERATION
-------------------

General Integration Accuracy     IntAcc      ...  4.340
Radial Grid Type                 RadialGrid  ... Gauss-Chebyshev
Angular Grid (max. acc.)         AngularGrid ... Lebedev-110
Angular grid pruning method      GridPruning ... 3 (G Style)
Weight generation scheme         WeightScheme... Becke
Basis function cutoff            BFCut       ...    1.0000e-11
Integration weight cutoff        WCut        ...    1.0000e-14
Grids for H and He will be reduced by one unit

# of grid points (after initial pruning)     ...  54832 (   0.0 sec)
# of grid points (after weights+screening)   ...  48828 (   0.2 sec)
nearest neighbour list constructed           ...    0.0 sec
Grid point re-assignment to atoms done       ...    0.0 sec
Grid point division into batches done        ...    0.0 sec
Reduced shell lists constructed in    0.2 sec

Total number of grid points                  ...    48828
Total number of batches                      ...      787
Average number of points per batch           ...       62
Average number of grid points per atom       ...     1085
Average number of shells per batch           ...   114.80 (34.37%)
Average number of basis functions per batch  ...   279.32 (34.06%)
Average number of large shells per batch     ...    78.66 (68.52%)
Average number of large basis fcns per batch ...   191.91 (68.71%)
Maximum spatial batch extension              ...  20.08, 19.20, 21.59 au
Average spatial batch extension              ...   0.82,  0.87,  0.98 au

Time for grid setup =    0.497 sec

------------------------------
INITIAL GUESS: MODEL POTENTIAL
------------------------------
Loading Hartree-Fock densities                     ... done
Calculating cut-offs                               ... done
Setting up the integral package                    ... done
Initializing the effective Hamiltonian             ... done
Starting the Coulomb interaction                   ... done (   0.7 sec)
Reading the grid                                   ... done
Mapping shells                                     ... done
Starting the XC term evaluation                    ... done (   0.6 sec)
  promolecular density results
     # of electrons  =    158.016811131
     EX              =   -123.576456641
     EC              =     -5.269148540
     EX+EC           =   -128.845605181
Transforming the Hamiltonian                       ... done (   0.0 sec)
Diagonalizing the Hamiltonian                      ... done (   0.1 sec)
Back transforming the eigenvectors                 ... done (   0.0 sec)
Now organizing SCF variables                       ... done
                      ------------------
                      INITIAL GUESS DONE (   2.1 sec)
                      ------------------

--------------------
CPCM SOLVATION MODEL
--------------------
CPCM parameters:
  Epsilon                                         ...       3.0000
  Refrac                                          ...       1.3300
  Rsolv                                           ...       1.3000
  Surface type                                    ...    GEPOL SES
  Epsilon function type                           ...         CPCM
Radii:
 Radius for C  used is    3.7795 Bohr (=   2.0000 Ang.)
 Radius for N  used is    3.4582 Bohr (=   1.8300 Ang.)
 Radius for H  used is    2.4566 Bohr (=   1.3000 Ang.)
Calculating surface                               ...        done! (  0.1s)
GEPOL surface points                              ...         1331
GEPOL Volume                                      ...    2500.3839
GEPOL Surface-area                                ...    1258.2328
Calculating surface distance matrix               ...        done! (  0.0s)
Performing Cholesky decomposition & store         ...        done! (  0.1s)
Overall time for CPCM initialization              ...                 0.1s
--------------
SCF ITERATIONS
--------------
ITER       Energy         Delta-E        Max-DP      RMS-DP      [F,P]     Damp
               ***  Starting incremental Fock matrix formation  ***
  0   -901.6787439522   0.000000000000 0.11945083  0.00105379  0.2038394 0.7000
  1   -901.8583272545  -0.179583302246 0.14736813  0.00121457  0.1132603 0.7000
                               ***Turning on DIIS***
  2   -901.9565404690  -0.098213214556 0.31667042  0.00265849  0.0522794 0.0000
  3   -902.1225616233  -0.166021154232 0.10532255  0.00086155  0.0501486 0.0000
  4   -902.1429490116  -0.020387388299 0.01968147  0.00015711  0.0070730 0.0000
  5   -902.1437656926  -0.000816681024 0.01488276  0.00011339  0.0056899 0.0000
                      *** Initiating the SOSCF procedure ***
                           *** Shutting down DIIS ***
                      *** Re-Reading the Fockian *** 
                      *** Removing any level shift *** 
ITER      Energy       Delta-E        Grad      Rot      Max-DP    RMS-DP
  6   -902.14401450  -0.0002488034  0.002864  0.002864  0.006978  0.000047
               *** Restarting incremental Fock matrix formation ***
  7   -902.14412153  -0.0001070376  0.001793  0.007257  0.007748  0.000055
  8   -902.14418731  -0.0000657781  0.000857  0.009152  0.009754  0.000075
  9   -902.14420838  -0.0000210718  0.000414  0.000815  0.000868  0.000010
 10   -902.14421552  -0.0000071395  0.000207  0.000688  0.000237  0.000002
 11   -902.14421610  -0.0000005771  0.000038  0.000154  0.000295  0.000003
 12   -902.14421626  -0.0000001610  0.000030  0.000229  0.000257  0.000002
 13   -902.14421629  -0.0000000316  0.000006  0.000028  0.000072  0.000001
                  ***Gradient check signals convergence***
              ***Rediagonalizing the Fockian in SOSCF/NRSCF***

               *****************************************************
               *                     SUCCESS                       *
               *           SCF CONVERGED AFTER  14 CYCLES          *
               *****************************************************

Setting up the final grid:

General Integration Accuracy     IntAcc      ...  4.670
Radial Grid Type                 RadialGrid  ... Gauss-Chebyshev
Angular Grid (max. acc.)         AngularGrid ... Lebedev-302
Angular grid pruning method      GridPruning ... 3 (G Style)
Weight generation scheme         WeightScheme... Becke
Basis function cutoff            BFCut       ...    1.0000e-11
Integration weight cutoff        WCut        ...    1.0000e-14
Grids for H and He will be reduced by one unit

# of grid points (after initial pruning)     ... 214726 (   0.0 sec)
# of grid points (after weights+screening)   ... 187714 (   0.8 sec)
nearest neighbour list constructed           ...    0.0 sec
Grid point re-assignment to atoms done       ...    0.0 sec
Grid point division into batches done        ...    0.7 sec
Reduced shell lists constructed in    1.3 sec

Total number of grid points                  ...   187714
Total number of batches                      ...     2957
Average number of points per batch           ...       63
Average number of grid points per atom       ...     4171
Average number of shells per batch           ...   104.23 (31.21%)
Average number of basis functions per batch  ...   252.02 (30.73%)
Average number of large shells per batch     ...    70.57 (67.71%)
Average number of large basis fcns per batch ...   170.02 (67.46%)
Maximum spatial batch extension              ...  16.09, 19.93, 21.43 au
Average spatial batch extension              ...   0.55,  0.58,  0.62 au

Final grid set up in    2.3 sec
Final integration                            ... done (   2.3 sec)
Change in XC energy                          ...     0.006574608
Integrated number of electrons               ...   157.999955316
Previous integrated no of electrons          ...   158.024964965

----------------
TOTAL SCF ENERGY
----------------

Total Energy       :         -902.13764168 Eh          -24548.41325 eV

Components:
Nuclear Repulsion  :         1653.91617968 Eh           45005.34728 eV
Electronic Energy  :        -2556.05382137 Eh          -69553.76052 eV
One Electron Energy:        -4506.00615370 Eh         -122614.66105 eV
Two Electron Energy:         1949.95233233 Eh           53060.90053 eV
CPCM Dielectric    :           -0.01428135 Eh              -0.38862 eV

Virial components:
Potential Energy   :        -1799.17189536 Eh          -48957.95625 eV
Kinetic Energy     :          897.03425368 Eh           24409.54300 eV
Virial Ratio       :            2.00568918


DFT components:
N(Alpha)           :       78.999977658161 electrons
N(Beta)            :       78.999977658161 electrons
N(Total)           :      157.999955316322 electrons
E(XC)              :      -90.660770960382 Eh       
DFET-embed. en.    :        0.000000000000 Eh       
CPCM Solvation Model Properties:
Surface-charge          :           -0.04565286
Charge-correction       :           -0.00032243 Eh              -0.00877 eV
Free-energy (cav+disp)  :            0.00590303 Eh               0.16063 eV
Corrected G(solv)       :         -902.13206109 Eh          -24548.26139 eV

---------------
SCF CONVERGENCE
---------------

  Last Energy change         ...    2.7910e-10  Tolerance :   1.0000e-08
  Last MAX-Density change    ...    2.8144e-05  Tolerance :   1.0000e-07
  Last RMS-Density change    ...    2.9384e-07  Tolerance :   5.0000e-09
  Last Orbital Gradient      ...    2.3580e-06  Tolerance :   1.0000e-05
  Last Orbital Rotation      ...    9.6099e-06  Tolerance :   1.0000e-05

             **** THE GBW FILE WAS UPDATED (AcOr.gbw) ****
             **** DENSITY FILE WAS UPDATED (AcOr.scfp) ****
             **** ENERGY FILE WAS UPDATED (AcOr.en.tmp) ****
             **** THE GBW FILE WAS UPDATED (AcOr.gbw) ****
             **** DENSITY FILE WAS UPDATED (AcOr.scfp) ****
----------------
ORBITAL ENERGIES
----------------

  NO   OCC          E(Eh)            E(eV) 
   0   2.0000     -14.441040      -392.9607 
   1   2.0000     -14.439787      -392.9266 
   2   2.0000     -14.393842      -391.6764 
   3   2.0000     -10.337737      -281.3041 
   4   2.0000     -10.334329      -281.2114 
   5   2.0000     -10.310208      -280.5550 
   6   2.0000     -10.309127      -280.5256 
   7   2.0000     -10.308583      -280.5108 
   8   2.0000     -10.307909      -280.4925 
   9   2.0000     -10.303866      -280.3825 
  10   2.0000     -10.301682      -280.3230 
  11   2.0000     -10.296794      -280.1900 
  12   2.0000     -10.286817      -279.9185 
  13   2.0000     -10.285208      -279.8747 
  14   2.0000     -10.279384      -279.7163 
  15   2.0000     -10.278636      -279.6959 
  16   2.0000     -10.277269      -279.6587 
  17   2.0000     -10.276722      -279.6438 
  18   2.0000     -10.270853      -279.4841 
  19   2.0000     -10.269352      -279.4433 
  20   2.0000     -10.262156      -279.2475 
  21   2.0000     -10.262012      -279.2435 
  22   2.0000      -1.053691       -28.6724 
  23   2.0000      -1.046298       -28.4712 
  24   2.0000      -1.038765       -28.2662 
  25   2.0000      -0.968912       -26.3654 
  26   2.0000      -0.950925       -25.8760 
  27   2.0000      -0.910611       -24.7790 
  28   2.0000      -0.881837       -23.9960 
  29   2.0000      -0.872004       -23.7284 
  30   2.0000      -0.868951       -23.6454 
  31   2.0000      -0.842504       -22.9257 
  32   2.0000      -0.833618       -22.6839 
  33   2.0000      -0.818582       -22.2747 
  34   2.0000      -0.783839       -21.3293 
  35   2.0000      -0.748889       -20.3783 
  36   2.0000      -0.745727       -20.2923 
  37   2.0000      -0.716560       -19.4986 
  38   2.0000      -0.710319       -19.3288 
  39   2.0000      -0.700784       -19.0693 
  40   2.0000      -0.680160       -18.5081 
  41   2.0000      -0.640416       -17.4266 
  42   2.0000      -0.636540       -17.3211 
  43   2.0000      -0.612612       -16.6700 
  44   2.0000      -0.592260       -16.1162 
  45   2.0000      -0.583092       -15.8668 
  46   2.0000      -0.581169       -15.8144 
  47   2.0000      -0.570249       -15.5173 
  48   2.0000      -0.561934       -15.2910 
  49   2.0000      -0.551313       -15.0020 
  50   2.0000      -0.542809       -14.7706 
  51   2.0000      -0.542749       -14.7689 
  52   2.0000      -0.536819       -14.6076 
  53   2.0000      -0.527358       -14.3501 
  54   2.0000      -0.524556       -14.2739 
  55   2.0000      -0.516599       -14.0574 
  56   2.0000      -0.509439       -13.8625 
  57   2.0000      -0.495773       -13.4907 
  58   2.0000      -0.494475       -13.4554 
  59   2.0000      -0.493454       -13.4276 
  60   2.0000      -0.483676       -13.1615 
  61   2.0000      -0.479430       -13.0459 
  62   2.0000      -0.475609       -12.9420 
  63   2.0000      -0.470772       -12.8104 
  64   2.0000      -0.467180       -12.7126 
  65   2.0000      -0.455230       -12.3874 
  66   2.0000      -0.451729       -12.2922 
  67   2.0000      -0.445198       -12.1145 
  68   2.0000      -0.437967       -11.9177 
  69   2.0000      -0.435798       -11.8587 
  70   2.0000      -0.420333       -11.4378 
  71   2.0000      -0.410795       -11.1783 
  72   2.0000      -0.408915       -11.1272 
  73   2.0000      -0.370830       -10.0908 
  74   2.0000      -0.340896        -9.2763 
  75   2.0000      -0.337716        -9.1897 
  76   2.0000      -0.315522        -8.5858 
  77   2.0000      -0.268977        -7.3192 
  78   2.0000      -0.260397        -7.0858 
  79   0.0000      -0.012850        -0.3497 
  80   0.0000       0.060545         1.6475 
  81   0.0000       0.076711         2.0874 
  82   0.0000       0.099009         2.6942 
  83   0.0000       0.105795         2.8788 
  84   0.0000       0.118364         3.2209 
  85   0.0000       0.137499         3.7415 
  86   0.0000       0.144325         3.9273 
  87   0.0000       0.145254         3.9526 
  88   0.0000       0.146000         3.9729 
  89   0.0000       0.153694         4.1822 
  90   0.0000       0.161012         4.3814 
  91   0.0000       0.162701         4.4273 
  92   0.0000       0.166843         4.5400 
  93   0.0000       0.167468         4.5570 
  94   0.0000       0.174206         4.7404 
  95   0.0000       0.181875         4.9491 
  96   0.0000       0.183838         5.0025 
  97   0.0000       0.188798         5.1375 
  98   0.0000       0.190205         5.1757 
  99   0.0000       0.194660         5.2970 
 100   0.0000       0.197047         5.3619 
 101   0.0000       0.203858         5.5473 
 102   0.0000       0.208784         5.6813 
 103   0.0000       0.212661         5.7868 
 104   0.0000       0.214942         5.8489 
 105   0.0000       0.218434         5.9439 
 106   0.0000       0.227217         6.1829 
 107   0.0000       0.233081         6.3425 
 108   0.0000       0.240319         6.5394 
 109   0.0000       0.241908         6.5827 
 110   0.0000       0.244471         6.6524 
 111   0.0000       0.250716         6.8223 
 112   0.0000       0.251839         6.8529 
 113   0.0000       0.253462         6.8971 
 114   0.0000       0.265305         7.2193 
 115   0.0000       0.266084         7.2405 
 116   0.0000       0.272065         7.4033 
 117   0.0000       0.276909         7.5351 
 118   0.0000       0.278296         7.5728 
 119   0.0000       0.294389         8.0107 
 120   0.0000       0.295071         8.0293 
 121   0.0000       0.298739         8.1291 
 122   0.0000       0.302003         8.2179 
 123   0.0000       0.309541         8.4231 
 124   0.0000       0.310225         8.4416 
 125   0.0000       0.314441         8.5564 
 126   0.0000       0.319231         8.6867 
 127   0.0000       0.326131         8.8745 
 128   0.0000       0.328006         8.9255 
 129   0.0000       0.328575         8.9410 
 130   0.0000       0.332092         9.0367 
 131   0.0000       0.335269         9.1231 
 132   0.0000       0.337651         9.1879 
 133   0.0000       0.338175         9.2022 
 134   0.0000       0.342601         9.3226 
 135   0.0000       0.351641         9.5686 
 136   0.0000       0.356052         9.6887 
 137   0.0000       0.361595         9.8395 
 138   0.0000       0.371301        10.1036 
 139   0.0000       0.375335        10.2134 
 140   0.0000       0.376808        10.2535 
 141   0.0000       0.377802        10.2805 
 142   0.0000       0.382464        10.4074 
 143   0.0000       0.382523        10.4090 
 144   0.0000       0.394908        10.7460 
 145   0.0000       0.400903        10.9091 
 146   0.0000       0.409162        11.1339 
 147   0.0000       0.414498        11.2791 
 148   0.0000       0.416255        11.3269 
 149   0.0000       0.422663        11.5012 
 150   0.0000       0.423406        11.5215 
 151   0.0000       0.432698        11.7743 
 152   0.0000       0.440917        11.9980 
 153   0.0000       0.441508        12.0140 
 154   0.0000       0.445087        12.1114 
 155   0.0000       0.448465        12.2033 
 156   0.0000       0.448844        12.2137 
 157   0.0000       0.451935        12.2978 
 158   0.0000       0.459073        12.4920 
 159   0.0000       0.464274        12.6335 
 160   0.0000       0.469598        12.7784 
 161   0.0000       0.472271        12.8511 
 162   0.0000       0.473054        12.8724 
 163   0.0000       0.484276        13.1778 
 164   0.0000       0.490185        13.3386 
 165   0.0000       0.490695        13.3525 
 166   0.0000       0.490871        13.3573 
 167   0.0000       0.498762        13.5720 
 168   0.0000       0.503706        13.7065 
 169   0.0000       0.507438        13.8081 
 170   0.0000       0.510730        13.8977 
 171   0.0000       0.513533        13.9740 
 172   0.0000       0.516686        14.0597 
 173   0.0000       0.519344        14.1321 
 174   0.0000       0.525511        14.2999 
 175   0.0000       0.530913        14.4469 
 176   0.0000       0.533646        14.5213 
 177   0.0000       0.538132        14.6433 
 178   0.0000       0.541243        14.7280 
 179   0.0000       0.543162        14.7802 
 180   0.0000       0.543221        14.7818 
 181   0.0000       0.553343        15.0572 
 182   0.0000       0.553960        15.0740 
 183   0.0000       0.556468        15.1423 
 184   0.0000       0.559185        15.2162 
 185   0.0000       0.560414        15.2496 
 186   0.0000       0.565094        15.3770 
 187   0.0000       0.572847        15.5880 
 188   0.0000       0.576180        15.6787 
 189   0.0000       0.580870        15.8063 
 190   0.0000       0.586974        15.9724 
 191   0.0000       0.588141        16.0041 
 192   0.0000       0.596398        16.2288 
 193   0.0000       0.597615        16.2619 
 194   0.0000       0.599925        16.3248 
 195   0.0000       0.610806        16.6209 
 196   0.0000       0.613794        16.7022 
 197   0.0000       0.616760        16.7829 
 198   0.0000       0.618199        16.8221 
 199   0.0000       0.620249        16.8778 
 200   0.0000       0.627533        17.0760 
 201   0.0000       0.630213        17.1490 
 202   0.0000       0.640149        17.4193 
 203   0.0000       0.644147        17.5281 
 204   0.0000       0.654640        17.8137 
 205   0.0000       0.657754        17.8984 
 206   0.0000       0.667293        18.1580 
 207   0.0000       0.668343        18.1865 
 208   0.0000       0.685156        18.6440 
 209   0.0000       0.688305        18.7297 
 210   0.0000       0.698535        19.0081 
 211   0.0000       0.700565        19.0634 
 212   0.0000       0.703209        19.1353 
 213   0.0000       0.708431        19.2774 
 214   0.0000       0.712505        19.3883 
 215   0.0000       0.717680        19.5291 
 216   0.0000       0.721531        19.6338 
 217   0.0000       0.727105        19.7855 
 218   0.0000       0.728208        19.8156 
 219   0.0000       0.732965        19.9450 
 220   0.0000       0.737211        20.0605 
 221   0.0000       0.743258        20.2251 
 222   0.0000       0.754921        20.5424 
 223   0.0000       0.759070        20.6554 
 224   0.0000       0.766734        20.8639 
 225   0.0000       0.766918        20.8689 
 226   0.0000       0.770444        20.9648 
 227   0.0000       0.772347        21.0166 
 228   0.0000       0.783123        21.3099 
 229   0.0000       0.789230        21.4760 
 230   0.0000       0.794884        21.6299 
 231   0.0000       0.804110        21.8809 
 232   0.0000       0.809715        22.0335 
 233   0.0000       0.814833        22.1727 
 234   0.0000       0.825764        22.4702 
 235   0.0000       0.831343        22.6220 
 236   0.0000       0.839302        22.8386 
 237   0.0000       0.843369        22.9492 
 238   0.0000       0.849982        23.1292 
 239   0.0000       0.851621        23.1738 
 240   0.0000       0.866578        23.5808 
 241   0.0000       0.867575        23.6079 
 242   0.0000       0.872181        23.7333 
 243   0.0000       0.875230        23.8162 
 244   0.0000       0.877616        23.8811 
 245   0.0000       0.883078        24.0298 
 246   0.0000       0.892944        24.2982 
 247   0.0000       0.894143        24.3309 
 248   0.0000       0.900102        24.4930 
 249   0.0000       0.913636        24.8613 
 250   0.0000       0.923390        25.1267 
 251   0.0000       0.930040        25.3077 
 252   0.0000       0.930601        25.3230 
 253   0.0000       0.941728        25.6257 
 254   0.0000       0.949649        25.8413 
 255   0.0000       0.952939        25.9308 
 256   0.0000       0.956837        26.0369 
 257   0.0000       0.961945        26.1759 
 258   0.0000       0.983292        26.7567 
 259   0.0000       0.988524        26.8991 
 260   0.0000       0.990944        26.9650 
 261   0.0000       0.995740        27.0955 
 262   0.0000       0.996875        27.1264 
 263   0.0000       1.001652        27.2563 
 264   0.0000       1.002087        27.2682 
 265   0.0000       1.004580        27.3360 
 266   0.0000       1.015182        27.6245 
 267   0.0000       1.019406        27.7394 
 268   0.0000       1.029796        28.0222 
 269   0.0000       1.038377        28.2557 
 270   0.0000       1.044900        28.4332 
 271   0.0000       1.054883        28.7048 
 272   0.0000       1.061958        28.8973 
 273   0.0000       1.080223        29.3944 
 274   0.0000       1.088983        29.6327 
 275   0.0000       1.092852        29.7380 
 276   0.0000       1.102403        29.9979 
 277   0.0000       1.106057        30.0974 
 278   0.0000       1.126892        30.6643 
 279   0.0000       1.129595        30.7378 
 280   0.0000       1.133837        30.8533 
 281   0.0000       1.142109        31.0784 
 282   0.0000       1.150720        31.3127 
 283   0.0000       1.151546        31.3352 
 284   0.0000       1.153465        31.3874 
 285   0.0000       1.160426        31.5768 
 286   0.0000       1.178170        32.0596 
 287   0.0000       1.179488        32.0955 
 288   0.0000       1.190699        32.4006 
 289   0.0000       1.191232        32.4151 
 290   0.0000       1.196590        32.5609 
 291   0.0000       1.205812        32.8118 
 292   0.0000       1.220478        33.2109 
 293   0.0000       1.222455        33.2647 
 294   0.0000       1.225586        33.3499 
 295   0.0000       1.240175        33.7469 
 296   0.0000       1.252282        34.0763 
 297   0.0000       1.260452        34.2986 
 298   0.0000       1.278160        34.7805 
 299   0.0000       1.286096        34.9964 
 300   0.0000       1.288256        35.0552 
 301   0.0000       1.301149        35.4061 
 302   0.0000       1.309883        35.6437 
 303   0.0000       1.324833        36.0505 
 304   0.0000       1.342966        36.5440 
 305   0.0000       1.345870        36.6230 
 306   0.0000       1.349689        36.7269 
 307   0.0000       1.350849        36.7585 
 308   0.0000       1.362251        37.0687 
 309   0.0000       1.369971        37.2788 
 310   0.0000       1.379961        37.5506 
 311   0.0000       1.383279        37.6409 
 312   0.0000       1.393058        37.9070 
 313   0.0000       1.399527        38.0831 
 314   0.0000       1.401471        38.1360 
 315   0.0000       1.417431        38.5703 
 316   0.0000       1.428749        38.8782 
 317   0.0000       1.436644        39.0931 
 318   0.0000       1.443698        39.2850 
 319   0.0000       1.451520        39.4979 
 320   0.0000       1.467972        39.9456 
 321   0.0000       1.477523        40.2054 
 322   0.0000       1.494903        40.6784 
 323   0.0000       1.505476        40.9661 
 324   0.0000       1.505961        40.9793 
 325   0.0000       1.507382        41.0180 
 326   0.0000       1.521216        41.3944 
 327   0.0000       1.522228        41.4219 
 328   0.0000       1.546823        42.0912 
 329   0.0000       1.550463        42.1903 
 330   0.0000       1.555196        42.3190 
 331   0.0000       1.556926        42.3661 
 332   0.0000       1.559809        42.4445 
 333   0.0000       1.574535        42.8453 
 334   0.0000       1.580536        43.0086 
 335   0.0000       1.581245        43.0279 
 336   0.0000       1.582966        43.0747 
 337   0.0000       1.585765        43.1509 
 338   0.0000       1.589554        43.2539 
 339   0.0000       1.591844        43.3163 
 340   0.0000       1.605245        43.6809 
 341   0.0000       1.612316        43.8734 
 342   0.0000       1.614942        43.9448 
 343   0.0000       1.616610        43.9902 
 344   0.0000       1.624988        44.2182 
 345   0.0000       1.628124        44.3035 
 346   0.0000       1.637201        44.5505 
 347   0.0000       1.637558        44.5602 
 348   0.0000       1.643416        44.7196 
 349   0.0000       1.656211        45.0678 
 350   0.0000       1.662316        45.2339 
 351   0.0000       1.666036        45.3352 
 352   0.0000       1.667055        45.3629 
 353   0.0000       1.669666        45.4339 
 354   0.0000       1.674704        45.5710 
 355   0.0000       1.684044        45.8252 
 356   0.0000       1.684938        45.8495 
 357   0.0000       1.690712        46.0066 
 358   0.0000       1.691133        46.0181 
 359   0.0000       1.694431        46.1078 
 360   0.0000       1.707906        46.4745 
 361   0.0000       1.708318        46.4857 
 362   0.0000       1.710388        46.5420 
 363   0.0000       1.717694        46.7408 
 364   0.0000       1.728586        47.0372 
 365   0.0000       1.741204        47.3806 
 366   0.0000       1.743130        47.4330 
 367   0.0000       1.745640        47.5013 
 368   0.0000       1.760303        47.9003 
 369   0.0000       1.767933        48.1079 
 370   0.0000       1.768053        48.1112 
 371   0.0000       1.774901        48.2975 
 372   0.0000       1.781494        48.4769 
 373   0.0000       1.784959        48.5712 
 374   0.0000       1.800720        49.0001 
 375   0.0000       1.801368        49.0177 
 376   0.0000       1.807269        49.1783 
 377   0.0000       1.816701        49.4350 
 378   0.0000       1.820451        49.5370 
 379   0.0000       1.828094        49.7450 
 380   0.0000       1.837317        49.9959 
 381   0.0000       1.848284        50.2944 
 382   0.0000       1.867436        50.8155 
 383   0.0000       1.876405        51.0596 
 384   0.0000       1.878708        51.1223 
 385   0.0000       1.884169        51.2708 
 386   0.0000       1.899580        51.6902 
 387   0.0000       1.904675        51.8288 
 388   0.0000       1.909009        51.9468 
 389   0.0000       1.914924        52.1077 
 390   0.0000       1.920601        52.2622 
 391   0.0000       1.927966        52.4626 
 392   0.0000       1.938469        52.7484 
 393   0.0000       1.940884        52.8141 
 394   0.0000       1.944676        52.9173 
 395   0.0000       1.952176        53.1214 
 396   0.0000       1.959026        53.3078 
 397   0.0000       1.965230        53.4766 
 398   0.0000       1.974154        53.7195 
 399   0.0000       1.974997        53.7424 
 400   0.0000       1.986977        54.0684 
 401   0.0000       1.995769        54.3076 
 402   0.0000       2.000624        54.4397 
 403   0.0000       2.007753        54.6337 
 404   0.0000       2.008416        54.6518 
 405   0.0000       2.012617        54.7661 
 406   0.0000       2.029712        55.2313 
 407   0.0000       2.049043        55.7573 
 408   0.0000       2.059380        56.0386 
 409   0.0000       2.063193        56.1423 
 410   0.0000       2.080453        56.6120 
 411   0.0000       2.098876        57.1133 
 412   0.0000       2.101651        57.1888 
 413   0.0000       2.108788        57.3830 
 414   0.0000       2.126979        57.8781 
 415   0.0000       2.134265        58.0763 
 416   0.0000       2.151977        58.5583 
 417   0.0000       2.159138        58.7531 
 418   0.0000       2.159413        58.7606 
 419   0.0000       2.164450        58.8977 
 420   0.0000       2.173844        59.1533 
 421   0.0000       2.190893        59.6172 
 422   0.0000       2.194733        59.7217 
 423   0.0000       2.205285        60.0089 
 424   0.0000       2.213058        60.2204 
 425   0.0000       2.230789        60.7028 
 426   0.0000       2.240811        60.9756 
 427   0.0000       2.254874        61.3582 
 428   0.0000       2.259335        61.4796 
 429   0.0000       2.267982        61.7149 
 430   0.0000       2.274194        61.8840 
 431   0.0000       2.286639        62.2226 
 432   0.0000       2.291137        62.3450 
 433   0.0000       2.301338        62.6226 
 434   0.0000       2.315316        63.0029 
 435   0.0000       2.324535        63.2538 
 436   0.0000       2.336206        63.5714 
 437   0.0000       2.341043        63.7030 
 438   0.0000       2.350309        63.9552 
 439   0.0000       2.354660        64.0736 
 440   0.0000       2.357903        64.1618 
 441   0.0000       2.374397        64.6106 
 442   0.0000       2.378651        64.7264 
 443   0.0000       2.380635        64.7804 
 444   0.0000       2.384227        64.8781 
 445   0.0000       2.390035        65.0362 
 446   0.0000       2.392099        65.0923 
 447   0.0000       2.397297        65.2338 
 448   0.0000       2.415137        65.7192 
 449   0.0000       2.418346        65.8065 
 450   0.0000       2.439014        66.3689 
 451   0.0000       2.448312        66.6219 
 452   0.0000       2.455156        66.8082 
 453   0.0000       2.456274        66.8386 
 454   0.0000       2.469913        67.2097 
 455   0.0000       2.472548        67.2815 
 456   0.0000       2.491527        67.7979 
 457   0.0000       2.499964        68.0275 
 458   0.0000       2.502726        68.1026 
 459   0.0000       2.510498        68.3141 
 460   0.0000       2.514292        68.4174 
 461   0.0000       2.527122        68.7665 
[...]
      pz      :     0.012914  p :     0.058552
      px      :     0.010586
      py      :     0.035052
 16 C s       :     2.695020  s :     2.695020
      pz      :     0.805175  p :     2.767222
      px      :     0.955143
      py      :     1.006904
      dz2     :     0.042074  d :     0.639474
      dxz     :     0.111544
      dyz     :     0.079754
      dx2y2   :     0.193604
      dxy     :     0.212498
      f0      :     0.004846  f :     0.079866
      f+1     :     0.005625
      f-1     :     0.004911
      f+2     :     0.008302
      f-2     :     0.011328
      f+3     :     0.032766
      f-3     :     0.012089
 17 H s       :     0.783929  s :     0.783929
      pz      :     0.016814  p :     0.063080
      px      :     0.010558
      py      :     0.035708
 18 C s       :     2.747202  s :     2.747202
      pz      :     0.822227  p :     2.848843
      px      :     1.035613
      py      :     0.991003
      dz2     :     0.027360  d :     0.395552
      dxz     :     0.092231
      dyz     :     0.012543
      dx2y2   :     0.162737
      dxy     :     0.100680
      f0      :     0.003113  f :     0.043732
      f+1     :     0.004055
      f-1     :     0.003207
      f+2     :     0.001658
      f-2     :     0.008060
      f+3     :     0.015737
      f-3     :     0.007902
 19 N s       :     3.011882  s :     3.011882
      pz      :     1.080843  p :     3.616928
      px      :     1.116936
      py      :     1.419149
      dz2     :     0.017844  d :     0.210891
      dxz     :     0.045175
      dyz     :     0.009897
      dx2y2   :     0.065046
      dxy     :     0.072929
      f0      :     0.001212  f :     0.017414
      f+1     :     0.002007
      f-1     :     0.000684
      f+2     :     0.000599
      f-2     :     0.002939
      f+3     :     0.006388
      f-3     :     0.003586
 20 C s       :     2.684879  s :     2.684879
      pz      :     0.875937  p :     2.873626
      px      :     0.996547
      py      :     1.001142
      dz2     :     0.035895  d :     0.509448
      dxz     :     0.075110
      dyz     :     0.061190
      dx2y2   :     0.171679
      dxy     :     0.165576
      f0      :     0.004052  f :     0.058663
      f+1     :     0.004429
      f-1     :     0.004251
      f+2     :     0.007098
      f-2     :     0.005873
      f+3     :     0.023113
      f-3     :     0.009847
 21 H s       :     0.780867  s :     0.780867
      pz      :     0.011912  p :     0.058270
      px      :     0.010468
      py      :     0.035890
 22 C s       :     2.695058  s :     2.695058
      pz      :     0.803722  p :     2.766482
      px      :     0.954127
      py      :     1.008634
      dz2     :     0.041819  d :     0.638956
      dxz     :     0.109266
      dyz     :     0.080413
      dx2y2   :     0.192692
      dxy     :     0.214766
      f0      :     0.004835  f :     0.079922
      f+1     :     0.005709
      f-1     :     0.004828
      f+2     :     0.008426
      f-2     :     0.011145
      f+3     :     0.032743
      f-3     :     0.012236
 23 C s       :     2.754123  s :     2.754123
      pz      :     0.870962  p :     2.911634
      px      :     1.046654
      py      :     0.994018
      dz2     :     0.026477  d :     0.395553
      dxz     :     0.091541
      dyz     :     0.013004
      dx2y2   :     0.164932
      dxy     :     0.099599
      f0      :     0.003159  f :     0.043330
      f+1     :     0.004284
      f-1     :     0.003164
      f+2     :     0.001838
      f-2     :     0.007607
      f+3     :     0.014966
      f-3     :     0.008311
 24 C s       :     2.748273  s :     2.748273
      pz      :     0.971586  p :     2.983497
      px      :     1.023886
      py      :     0.988025
      dz2     :     0.027054  d :     0.354956
      dxz     :     0.066638
      dyz     :     0.014232
      dx2y2   :     0.142503
      dxy     :     0.104529
      f0      :     0.003272  f :     0.040666
      f+1     :     0.004522
      f-1     :     0.003058
      f+2     :     0.002039
      f-2     :     0.005913
      f+3     :     0.013723
      f-3     :     0.008139
 25 C s       :     2.754921  s :     2.754921
      pz      :     0.918309  p :     2.953759
      px      :     1.026385
      py      :     1.009066
      dz2     :     0.025186  d :     0.373339
      dxz     :     0.026587
      dyz     :     0.062115
      dx2y2   :     0.130732
      dxy     :     0.128719
      f0      :     0.003252  f :     0.042291
      f+1     :     0.003329
      f-1     :     0.004087
      f+2     :     0.004922
      f-2     :     0.003746
      f+3     :     0.014860
      f-3     :     0.008097
 26 H s       :     0.785273  s :     0.785273
      pz      :     0.013066  p :     0.058591
      px      :     0.010635
      py      :     0.034890
 27 C s       :     2.698642  s :     2.698642
      pz      :     0.823459  p :     2.783233
      px      :     0.961833
      py      :     0.997941
      dz2     :     0.042356  d :     0.630816
      dxz     :     0.141375
      dyz     :     0.082810
      dx2y2   :     0.184005
      dxy     :     0.180270
      f0      :     0.005260  f :     0.075825
      f+1     :     0.005874
      f-1     :     0.004833
      f+2     :     0.008748
      f-2     :     0.012831
      f+3     :     0.026187
      f-3     :     0.012093
 28 H s       :     0.785936  s :     0.785936
      pz      :     0.014890  p :     0.061483
      px      :     0.029844
      py      :     0.016749
 29 H s       :     0.782966  s :     0.782966
      pz      :     0.016370  p :     0.062998
      px      :     0.010713
      py      :     0.035916
 30 N s       :     2.887034  s :     2.887034
      pz      :     1.382078  p :     3.636298
      px      :     1.128230
      py      :     1.125991
      dz2     :     0.027986  d :     0.286462
      dxz     :     0.042763
      dyz     :     0.039128
      dx2y2   :     0.091411
      dxy     :     0.085173
      f0      :     0.001752  f :     0.019712
      f+1     :     0.002268
      f-1     :     0.001630
      f+2     :     0.002839
      f-2     :     0.002465
      f+3     :     0.006154
      f-3     :     0.002604
 31 C s       :     2.776073  s :     2.776073
      pz      :     1.047525  p :     2.985609
      px      :     1.055482
      py      :     0.882602
      dz2     :     0.057838  d :     0.481024
      dxz     :     0.087301
      dyz     :     0.115889
      dx2y2   :     0.121954
      dxy     :     0.098043
      f0      :     0.006048  f :     0.054114
      f+1     :     0.004285
      f-1     :     0.006415
      f+2     :     0.010806
      f-2     :     0.004562
      f+3     :     0.012795
      f-3     :     0.009203
 32 C s       :     2.774173  s :     2.774173
      pz      :     1.024593  p :     2.989310
      px      :     0.933183
      py      :     1.031534
      dz2     :     0.129329  d :     0.475704
      dxz     :     0.131622
      dyz     :     0.071596
      dx2y2   :     0.083790
      dxy     :     0.059367
      f0      :     0.006281  f :     0.053589
      f+1     :     0.013183
      f-1     :     0.008280
      f+2     :     0.006392
      f-2     :     0.007729
      f+3     :     0.004373
      f-3     :     0.007351
 33 C s       :     2.828742  s :     2.828742
      pz      :     1.070827  p :     3.195291
      px      :     1.057953
      py      :     1.066511
      dz2     :     0.038657  d :     0.262096
      dxz     :     0.086619
      dyz     :     0.021328
      dx2y2   :     0.076120
      dxy     :     0.039373
      f0      :     0.002016  f :     0.024984
      f+1     :     0.004266
      f-1     :     0.003390
      f+2     :     0.002628
      f-2     :     0.003553
      f+3     :     0.005311
      f-3     :     0.003821
 34 H s       :     0.797800  s :     0.797800
      pz      :     0.023818  p :     0.059256
      px      :     0.024560
      py      :     0.010877
 35 H s       :     0.813633  s :     0.813633
      pz      :     0.030493  p :     0.058857
      px      :     0.014771
      py      :     0.013593
 36 H s       :     0.814596  s :     0.814596
      pz      :     0.029384  p :     0.061360
      px      :     0.015357
      py      :     0.016619
 37 H s       :     0.810350  s :     0.810350
      pz      :     0.014013  p :     0.061272
      px      :     0.014029
      py      :     0.033230
 38 H s       :     0.818726  s :     0.818726
      pz      :     0.024395  p :     0.061892
      px      :     0.023862
      py      :     0.013635
 39 C s       :     2.830344  s :     2.830344
      pz      :     1.050984  p :     3.197014
      px      :     1.073273
      py      :     1.072758
      dz2     :     0.060898  d :     0.257186
      dxz     :     0.071604
      dyz     :     0.064039
      dx2y2   :     0.038813
      dxy     :     0.021832
      f0      :     0.005383  f :     0.024608
      f+1     :     0.004812
      f-1     :     0.006386
      f+2     :     0.002064
      f-2     :     0.002955
      f+3     :     0.000109
      f-3     :     0.002899
 40 H s       :     0.804923  s :     0.804923
      pz      :     0.013441  p :     0.060677
      px      :     0.012056
      py      :     0.035180
 41 H s       :     0.803221  s :     0.803221
      pz      :     0.015980  p :     0.060054
      px      :     0.025487
      py      :     0.018586
 42 H s       :     0.813747  s :     0.813747
      pz      :     0.016441  p :     0.061577
      px      :     0.027164
      py      :     0.017972
 43 H s       :     0.814184  s :     0.814184
      pz      :     0.016052  p :     0.061324
      px      :     0.028483
      py      :     0.016789
 44 H s       :     0.816870  s :     0.816870
      pz      :     0.014094  p :     0.061517
      px      :     0.013540
      py      :     0.033883


                      *****************************
                      * MAYER POPULATION ANALYSIS *
                      *****************************

  NA   - Mulliken gross atomic population
  ZA   - Total nuclear charge
  QA   - Mulliken gross atomic charge
  VA   - Mayer's total valence
  BVA  - Mayer's bonded valence
  FA   - Mayer's free valence

  ATOM       NA         ZA         QA         VA         BVA        FA
  0 C      6.3045     6.0000    -0.3045     3.8713     3.8713    -0.0000
  1 N      7.1137     7.0000    -0.1137     3.1822     3.1822    -0.0000
  2 H      0.8590     1.0000     0.1410     0.9546     0.9546    -0.0000
  3 H      0.8586     1.0000     0.1414     0.9723     0.9723    -0.0000
  4 H      0.8585     1.0000     0.1415     0.9581     0.9581     0.0000
  5 C      6.3069     6.0000    -0.3069     3.8740     3.8740     0.0000
  6 H      0.8633     1.0000     0.1367     0.9635     0.9635     0.0000
  7 H      0.8595     1.0000     0.1405     0.9703     0.9703    -0.0000
  8 H      0.8530     1.0000     0.1470     0.9570     0.9570    -0.0000
  9 C      5.6474     6.0000     0.3526     3.6875     3.6875    -0.0000
 10 C      6.2456     6.0000    -0.2456     3.9260     3.9260    -0.0000
 11 C      6.4916     6.0000    -0.4916     4.0197     4.0197     0.0000
 12 C      6.2534     6.0000    -0.2534     3.9427     3.9427     0.0000
 13 H      0.8466     1.0000     0.1534     0.9760     0.9760    -0.0000
 14 C      5.8970     6.0000     0.1030     3.6733     3.6733    -0.0000
 15 H      0.8531     1.0000     0.1469     0.9746     0.9746     0.0000
 16 C      5.8017     6.0000     0.1983     4.1142     4.1142     0.0000
 17 H      0.8679     1.0000     0.1321     1.0194     1.0194    -0.0000
 18 C      6.2328     6.0000    -0.2328     3.8881     3.8881     0.0000
 19 N      7.3443     7.0000    -0.3443     3.1391     3.1391     0.0000
 20 C      5.9024     6.0000     0.0976     3.6817     3.6817    -0.0000
 21 H      0.8485     1.0000     0.1515     0.9763     0.9763     0.0000
 22 C      5.8109     6.0000     0.1891     4.1143     4.1143    -0.0000
 23 C      6.2333     6.0000    -0.2333     3.9178     3.9178    -0.0000
 24 C      6.4621     6.0000    -0.4621     3.9913     3.9913    -0.0000
 25 C      6.2350     6.0000    -0.2350     3.9638     3.9638    -0.0000
 26 H      0.8532     1.0000     0.1468     0.9741     0.9741     0.0000
 27 C      5.7084     6.0000     0.2916     3.7576     3.7576    -0.0000
 28 H      0.8562     1.0000     0.1438     0.9762     0.9762    -0.0000
 29 H      0.8633     1.0000     0.1367     1.0206     1.0206    -0.0000
 30 N      7.0827     7.0000    -0.0827     3.1046     3.1046    -0.0000
 31 C      6.1648     6.0000    -0.1648     3.8416     3.8416     0.0000
 32 C      6.1770     6.0000    -0.1770     3.9216     3.9216     0.0000
 33 C      6.4104     6.0000    -0.4104     3.9140     3.9140    -0.0000
 34 H      0.8612     1.0000     0.1388     0.9555     0.9555     0.0000
 35 H      0.8730     1.0000     0.1270     0.9532     0.9532    -0.0000
 36 H      0.8672     1.0000     0.1328     0.9713     0.9713    -0.0000
 37 H      0.8585     1.0000     0.1415     0.9699     0.9699    -0.0000
 38 H      0.8644     1.0000     0.1356     0.9615     0.9615    -0.0000
 39 C      6.3757     6.0000    -0.3757     3.8626     3.8626    -0.0000
 40 H      0.8758     1.0000     0.1242     0.9684     0.9684     0.0000
 41 H      0.8570     1.0000     0.1430     0.9541     0.9541    -0.0000
 42 H      0.8617     1.0000     0.1383     0.9683     0.9683    -0.0000
 43 H      0.8690     1.0000     0.1310     0.9744     0.9744     0.0000
 44 H      0.8701     1.0000     0.1299     0.9669     0.9669     0.0000

  Mayer bond orders larger than 0.100000
B(  0-C ,  1-N ) :   0.9562 B(  0-C ,  2-H ) :   0.9643 B(  0-C ,  3-H ) :   0.9684 
B(  0-C ,  4-H ) :   0.9669 B(  1-N ,  5-C ) :   0.9606 B(  1-N ,  9-C ) :   1.2643 
B(  5-C ,  6-H ) :   0.9697 B(  5-C ,  7-H ) :   0.9671 B(  5-C ,  8-H ) :   0.9625 
B(  9-C , 10-C ) :   1.0747 B(  9-C , 11-C ) :   1.4252 B( 10-C , 12-C ) :   1.7069 
B( 10-C , 13-H ) :   0.9710 B( 11-C , 16-C ) :   1.3713 B( 11-C , 17-H ) :   0.9429 
B( 12-C , 14-C ) :   1.1040 B( 12-C , 15-H ) :   0.9835 B( 14-C , 16-C ) :   1.1595 
B( 14-C , 18-C ) :   1.3352 B( 16-C , 19-N ) :   1.4362 B( 18-C , 20-C ) :   1.3479 
B( 18-C , 21-H ) :   0.9676 B( 19-N , 22-C ) :   1.4596 B( 20-C , 22-C ) :   1.1635 
B( 20-C , 23-C ) :   1.0918 B( 22-C , 24-C ) :   1.3372 B( 23-C , 25-C ) :   1.7055 
B( 23-C , 26-H ) :   0.9850 B( 24-C , 27-C ) :   1.4711 B( 24-C , 29-H ) :   0.9529 
B( 25-C , 27-C ) :   1.1038 B( 25-C , 28-H ) :   0.9754 B( 27-C , 30-N ) :   1.2365 
B( 30-N , 31-C ) :   0.9586 B( 30-N , 32-C ) :   0.9269 B( 31-C , 33-C ) :   0.9607 
B( 31-C , 34-H ) :   0.9552 B( 31-C , 35-H ) :   0.9640 B( 32-C , 39-C ) :   0.9637 
B( 32-C , 40-H ) :   0.9751 B( 32-C , 41-H ) :   0.9746 B( 33-C , 36-H ) :   0.9799 
B( 33-C , 37-H ) :   0.9732 B( 33-C , 38-H ) :   0.9769 B( 39-C , 42-H ) :   0.9699 
B( 39-C , 43-H ) :   0.9758 B( 39-C , 44-H ) :   0.9695 

-------
TIMINGS
-------

Total SCF time: 0 days 0 hours 18 min 39 sec 

Total time                  ....    1119.419 sec
Sum of individual times     ....    1118.208 sec  ( 99.9%)

Fock matrix formation       ....    1113.896 sec  ( 99.5%)
  XC integration            ....       6.028 sec  (  0.5% of F)
    Basis function eval.    ....       1.309 sec  ( 21.7% of XC)
    Density eval.           ....       1.590 sec  ( 26.4% of XC)
    XC-Functional eval.     ....       0.506 sec  (  8.4% of XC)
    XC-Potential eval.      ....       2.448 sec  ( 40.6% of XC)
Diagonalization             ....       0.184 sec  (  0.0%)
Density matrix formation    ....       0.055 sec  (  0.0%)
Population analysis         ....       0.121 sec  (  0.0%)
Initial guess               ....       0.230 sec  (  0.0%)
Orbital Transformation      ....       0.000 sec  (  0.0%)
Orbital Orthonormalization  ....       0.193 sec  (  0.0%)
DIIS solution               ....       0.049 sec  (  0.0%)
SOSCF solution              ....       0.747 sec  (  0.1%)
Grid generation             ....       2.926 sec  (  0.3%)


-------------------------------------------------------------------------------
                          DFT DISPERSION CORRECTION                            
                                                                               
                              DFTD3 V3.1  Rev 1                                
                              USING zero damping                               
-------------------------------------------------------------------------------
The omegaB97X-D3 functional is recognized. Fit by Chai et al.
Active option DFTDOPT                   ...         3   

molecular C6(AA) [au] = 20447.120090 


            DFT-D V3
 parameters
 s6 scaling factor         :     1.0000 
 rs6 scaling factor        :     1.2810 
 s8 scaling factor         :     1.0000 
 rs8 scaling factor        :     1.0940 
 Damping factor alpha6     :    14.0000 
 Damping factor alpha8     :    16.0000 
 ad hoc parameters k1-k3   :    16.0000     1.3333    -4.0000 

 Edisp/kcal,au: -11.731322227445  -0.018695049973 
 E6   /kcal   :  -5.529494861 
 E8   /kcal   :  -6.201827367 
 % E8         :  52.865544451 

-------------------------   ----------------
Dispersion correction           -0.018695050
-------------------------   ----------------


-------------------------   --------------------
FINAL SINGLE POINT ENERGY      -902.204727905853
-------------------------   --------------------

                                *** OPTIMIZATION RUN DONE ***

                            ***************************************
                            *     ORCA property calculations      *
                            ***************************************

                                    ---------------------
                                    Active property flags
                                    ---------------------
   (+) Dipole Moment


------------------------------------------------------------------------------
                       ORCA ELECTRIC PROPERTIES CALCULATION
------------------------------------------------------------------------------

Dipole Moment Calculation                       ... on
Quadrupole Moment Calculation                   ... off
Polarizability Calculation                      ... off
GBWName                                         ... AcOr.gbw
Electron density file                           ... AcOr.scfp
The origin for moment calculation is the CENTER OF MASS  = (13.981850,  3.119631 -0.074956)

-------------
DIPOLE MOMENT
-------------
                                X             Y             Z
Electronic contribution:    -10.97884      12.05590      -2.27186
Nuclear contribution   :     10.67886     -11.65404       2.40418
                        -----------------------------------------
Total Dipole Moment    :     -0.29998       0.40186       0.13232
                        -----------------------------------------
Magnitude (a.u.)       :      0.51864
Magnitude (Debye)      :      1.31828



--------------------
Rotational spectrum 
--------------------
 
Rotational constants in cm-1:     0.024528     0.003768     0.003377 
Rotational constants in MHz :   735.330875   112.971205   101.246210 

 Dipole components along the rotational axes: 
x,y,z [a.u.] :    -0.340301     0.374925    -0.112308 
x,y,z [Debye]:    -0.864977     0.952984    -0.285465 

 

Timings for individual modules:

Sum of individual times         ...    91457.868 sec (=1524.298 min)
GTO integral calculation        ...       77.146 sec (=   1.286 min)   0.1 %
SCF iterations                  ...    56325.355 sec (= 938.756 min)  61.6 %
SCF Gradient evaluation         ...    35030.554 sec (= 583.843 min)  38.3 %
Geometry relaxation             ...       24.813 sec (=   0.414 min)   0.0 %
                             ****ORCA TERMINATED NORMALLY****
TOTAL RUN TIME: 1 days 1 hours 24 minutes 32 seconds 912 msec
