Warning: no access to tty (Bad file descriptor).
Thus no job control in this shell.

                                 *****************
                                 * O   R   C   A *
                                 *****************

           --- An Ab Initio, DFT and Semiempirical electronic structure package ---

                  #######################################################
                  #                        -***-                        #
                  #          Department of theory and spectroscopy      #
                  #               Directorship: Frank Neese             #
                  #        Max Planck Institute fuer Kohlenforschung    #
                  #                Kaiser Wilhelm Platz 1               #
                  #                 D-45470 Muelheim/Ruhr               #
                  #                      Germany                        #
                  #                                                     #
                  #                  All rights reserved                #
                  #                        -***-                        #
                  #######################################################


                         Program Version 4.2.1 -  RELEASE  -


 With contributions from (in alphabetic order):
   Daniel Aravena         : Magnetic Suceptibility
   Michael Atanasov       : Ab Initio Ligand Field Theory (pilot matlab implementation)
   Alexander A. Auer      : GIAO ZORA, VPT2
   Ute Becker             : Parallelization
   Giovanni Bistoni       : ED, misc. LED, open-shell LED, HFLD
   Martin Brehm           : Molecular dynamics
   Dmytro Bykov           : SCF Hessian
   Vijay G. Chilkuri      : MRCI spin determinant printing, contributions to CSF-ICE
   Dipayan Datta          : RHF DLPNO-CCSD density
   Achintya Kumar Dutta   : EOM-CC, STEOM-CC
   Dmitry Ganyushin       : Spin-Orbit,Spin-Spin,Magnetic field MRCI
   Miquel Garcia          : C-PCM Hessian, Gaussian charge scheme
   Yang Guo               : DLPNO-NEVPT2, CIM, IAO-localization
   Andreas Hansen         : Spin unrestricted coupled pair/coupled cluster methods
   Benjamin Helmich-Paris : CASSCF linear response (MC-RPA)
   Lee Huntington         : MR-EOM, pCC
   Robert Izsak           : Overlap fitted RIJCOSX, COSX-SCS-MP3, EOM
   Christian Kollmar      : KDIIS, OOCD, Brueckner-CCSD(T), CCSD density
   Simone Kossmann        : Meta GGA functionals, TD-DFT gradient, OOMP2, MP2 Hessian
   Martin Krupicka        : AUTO-CI
   Lucas Lang             : DCDCAS
   Dagmar Lenk            : GEPOL surface, SMD
   Dimitrios Liakos       : Extrapolation schemes; Compound Job, initial MDCI parallelization
   Dimitrios Manganas     : Further ROCIS development; embedding schemes
   Dimitrios Pantazis     : SARC Basis sets
   Taras Petrenko         : DFT Hessian,TD-DFT gradient, ASA, ECA, R-Raman, ABS, FL, XAS/XES, NRVS
   Peter Pinski           : DLPNO-MP2, DLPNO-MP2 Gradient
   Christoph Reimann      : Effective Core Potentials
   Marius Retegan         : Local ZFS, SOC
   Christoph Riplinger    : Optimizer, TS searches, QM/MM, DLPNO-CCSD(T), (RO)-DLPNO pert. Triples
   Tobias Risthaus        : Range-separated hybrids, TD-DFT gradient, RPA, STAB
   Michael Roemelt        : Original ROCIS implementation
   Masaaki Saitow         : Open-shell DLPNO-CCSD energy and density
   Barbara Sandhoefer     : DKH picture change effects
   Avijit Sen             : IP-ROCIS
   Kantharuban Sivalingam : CASSCF convergence, NEVPT2, FIC-MRCI
   Bernardo de Souza      : ESD, SOC TD-DFT
   Georgi Stoychev        : AutoAux, RI-MP2 NMR
   Willem Van den Heuvel  : Paramagnetic NMR
   Boris Wezisla          : Elementary symmetry handling
   Frank Wennmohs         : Technical directorship


 We gratefully acknowledge several colleagues who have allowed us to
 interface, adapt or use parts of their codes:
   Stefan Grimme, W. Hujo, H. Kruse,             : VdW corrections, initial TS optimization,
                  C. Bannwarth                     DFT functionals, gCP, sTDA/sTD-DF
   Ed Valeev, F. Pavosevic, A. Kumar             : LibInt (2-el integral package), F12 methods
   Garnet Chan, S. Sharma, J. Yang, R. Olivares  : DMRG
   Ulf Ekstrom                                   : XCFun DFT Library
   Mihaly Kallay                                 : mrcc  (arbitrary order and MRCC methods)
   Andreas Klamt, Michael Diedenhofen            : otool_cosmo (COSMO solvation model)
   Jiri Pittner, Ondrej Demel                    : Mk-CCSD
   Frank Weinhold                                : gennbo (NPA and NBO analysis)
   Christopher J. Cramer and Donald G. Truhlar   : smd solvation model
   Lars Goerigk                                  : TD-DFT with DH, B97 family of functionals
   V. Asgeirsson, H. Jonsson                     : NEB implementation
   FAccTs GmbH                                   : IRC, NEB, NEB-TS, Multilevel, MM, QM/MM, CI optimization
   S Lehtola, MJT Oliveira, MAL Marques          : LibXC Library


 Your calculation uses the libint2 library for the computation of 2-el integrals
 For citations please refer to: http://libint.valeyev.net

 Your ORCA version has been built with support for libXC version: 4.2.3
 For citations please refer to: https://tddft.org/programs/libxc/

 This ORCA versions uses:
   CBLAS   interface :  Fast vector & matrix operations
   LAPACKE interface :  Fast linear algebra routines
   SCALAPACK package :  Parallel linear algebra routines


[file orca_main/maininp1.cpp, line 15105]: ERROR: expect a '$', '!', '%', '*' or '[' in the input

[file orca_main/maininp1.cpp, line 15105]: ERROR: expect a '$', '!', '%', '*' or '[' in the input

Warning: no access to tty (Bad file descriptor).
Thus no job control in this shell.

                                 *****************
                                 * O   R   C   A *
                                 *****************

           --- An Ab Initio, DFT and Semiempirical electronic structure package ---

                  #######################################################
                  #                        -***-                        #
                  #          Department of theory and spectroscopy      #
                  #               Directorship: Frank Neese             #
                  #        Max Planck Institute fuer Kohlenforschung    #
                  #                Kaiser Wilhelm Platz 1               #
                  #                 D-45470 Muelheim/Ruhr               #
                  #                      Germany                        #
                  #                                                     #
                  #                  All rights reserved                #
                  #                        -***-                        #
                  #######################################################


                         Program Version 4.2.1 -  RELEASE  -


 With contributions from (in alphabetic order):
   Daniel Aravena         : Magnetic Suceptibility
   Michael Atanasov       : Ab Initio Ligand Field Theory (pilot matlab implementation)
   Alexander A. Auer      : GIAO ZORA, VPT2
   Ute Becker             : Parallelization
   Giovanni Bistoni       : ED, misc. LED, open-shell LED, HFLD
   Martin Brehm           : Molecular dynamics
   Dmytro Bykov           : SCF Hessian
   Vijay G. Chilkuri      : MRCI spin determinant printing, contributions to CSF-ICE
   Dipayan Datta          : RHF DLPNO-CCSD density
   Achintya Kumar Dutta   : EOM-CC, STEOM-CC
   Dmitry Ganyushin       : Spin-Orbit,Spin-Spin,Magnetic field MRCI
   Miquel Garcia          : C-PCM Hessian, Gaussian charge scheme
   Yang Guo               : DLPNO-NEVPT2, CIM, IAO-localization
   Andreas Hansen         : Spin unrestricted coupled pair/coupled cluster methods
   Benjamin Helmich-Paris : CASSCF linear response (MC-RPA)
   Lee Huntington         : MR-EOM, pCC
   Robert Izsak           : Overlap fitted RIJCOSX, COSX-SCS-MP3, EOM
   Christian Kollmar      : KDIIS, OOCD, Brueckner-CCSD(T), CCSD density
   Simone Kossmann        : Meta GGA functionals, TD-DFT gradient, OOMP2, MP2 Hessian
   Martin Krupicka        : AUTO-CI
   Lucas Lang             : DCDCAS
   Dagmar Lenk            : GEPOL surface, SMD
   Dimitrios Liakos       : Extrapolation schemes; Compound Job, initial MDCI parallelization
   Dimitrios Manganas     : Further ROCIS development; embedding schemes
   Dimitrios Pantazis     : SARC Basis sets
   Taras Petrenko         : DFT Hessian,TD-DFT gradient, ASA, ECA, R-Raman, ABS, FL, XAS/XES, NRVS
   Peter Pinski           : DLPNO-MP2, DLPNO-MP2 Gradient
   Christoph Reimann      : Effective Core Potentials
   Marius Retegan         : Local ZFS, SOC
   Christoph Riplinger    : Optimizer, TS searches, QM/MM, DLPNO-CCSD(T), (RO)-DLPNO pert. Triples
   Tobias Risthaus        : Range-separated hybrids, TD-DFT gradient, RPA, STAB
   Michael Roemelt        : Original ROCIS implementation
   Masaaki Saitow         : Open-shell DLPNO-CCSD energy and density
   Barbara Sandhoefer     : DKH picture change effects
   Avijit Sen             : IP-ROCIS
   Kantharuban Sivalingam : CASSCF convergence, NEVPT2, FIC-MRCI
   Bernardo de Souza      : ESD, SOC TD-DFT
   Georgi Stoychev        : AutoAux, RI-MP2 NMR
   Willem Van den Heuvel  : Paramagnetic NMR
   Boris Wezisla          : Elementary symmetry handling
   Frank Wennmohs         : Technical directorship


 We gratefully acknowledge several colleagues who have allowed us to
 interface, adapt or use parts of their codes:
   Stefan Grimme, W. Hujo, H. Kruse,             : VdW corrections, initial TS optimization,
                  C. Bannwarth                     DFT functionals, gCP, sTDA/sTD-DF
   Ed Valeev, F. Pavosevic, A. Kumar             : LibInt (2-el integral package), F12 methods
   Garnet Chan, S. Sharma, J. Yang, R. Olivares  : DMRG
   Ulf Ekstrom                                   : XCFun DFT Library
   Mihaly Kallay                                 : mrcc  (arbitrary order and MRCC methods)
   Andreas Klamt, Michael Diedenhofen            : otool_cosmo (COSMO solvation model)
   Jiri Pittner, Ondrej Demel                    : Mk-CCSD
   Frank Weinhold                                : gennbo (NPA and NBO analysis)
   Christopher J. Cramer and Donald G. Truhlar   : smd solvation model
   Lars Goerigk                                  : TD-DFT with DH, B97 family of functionals
   V. Asgeirsson, H. Jonsson                     : NEB implementation
   FAccTs GmbH                                   : IRC, NEB, NEB-TS, Multilevel, MM, QM/MM, CI optimization
   S Lehtola, MJT Oliveira, MAL Marques          : LibXC Library


 Your calculation uses the libint2 library for the computation of 2-el integrals
 For citations please refer to: http://libint.valeyev.net

 Your ORCA version has been built with support for libXC version: 4.2.3
 For citations please refer to: https://tddft.org/programs/libxc/

 This ORCA versions uses:
   CBLAS   interface :  Fast vector & matrix operations
   LAPACKE interface :  Fast linear algebra routines
   SCALAPACK package :  Parallel linear algebra routines


Your calculation utilizes the atom-pairwise dispersion correction
with the zero-damping scheme (D30)
Cite in your paper:
S.Grimme, J.Antony, S.Ehrlich and H.Krieg, J.Chem.Phys., 132, (2010), 154104 
   

XCFun DFT library Copyright 2009-2010 Ulf Ekstrom and contributors.
See http://admol.org/xcfun for more information. This is free soft-
ware; see the source code for copying conditions. There is ABSOLUTELY
NO WARRANTY; not even for MERCHANTABILITY or FITNESS FOR A PARTICULAR
PURPOSE. For details see the documentation. Scientific users of this 
library should cite U. Ekstrom, L. Visscher, R. Bast, A. J. Thorvald-
sen and K. Ruud; J.Chem.Theor.Comp. 2010, DOI: 10.1021/ct100117s
XCFun Version 0.99 
----- Orbital basis set information -----
Your calculation utilizes the basis: def2-TZVP
   F. Weigend and R. Ahlrichs, Phys. Chem. Chem. Phys. 7, 3297 (2005).

----- AuxJ basis set information -----
Your calculation utilizes the auxiliary basis: def2/J
   F. Weigend, Phys. Chem. Chem. Phys. 8, 1057 (2006).

================================================================================
                                        WARNINGS
                       Please study these warnings very carefully!
================================================================================


WARNING: Geometry Optimization
  ===> : Switching off AutoStart
         For restart on a previous wavefunction, please use MOREAD

INFO   : the flag for use of LIBINT has been found!

================================================================================
                                       INPUT FILE
================================================================================
NAME = BEDT-TTF.inp
|  1> # avogadro generated ORCA input file 
|  2> # Basic Mode
|  3> # 
|  4> ! wB97X-D3 OPT def2-TZVP def2/J CPCM
|  5> %cpcm
|  6>   epsilon 3
|  7> end
|  8> %pal
|  9>  nprocs 4
| 10> end
| 11> 
| 12> * xyz 0 1
| 13>    S       -1.66682        2.93988       -0.26681
| 14>    H       -1.00422        1.71719        0.23553
| 15>    H       -2.63794        1.94353       -0.94035
| 16>    S       -1.85692       -0.05681       -0.34009
| 17>    H       -1.04995        1.04965        0.21711
| 18>    H       -2.69213        1.08528       -0.96135
| 19>    S        0.16083        1.97685        1.02557
| 20>    S        0.06268        0.59453        0.99081
| 21>    H        1.00239        1.24494        0.10788
| 22>    H        1.46186        1.22323       -0.37453
| 23>    S        2.27551        1.87213       -1.37605
| 24>    S        2.39918        0.49018       -1.19291
| 25>    H        3.46075        1.70998       -0.59090
| 26>    H        3.51891        1.04916       -0.50285
| 27>    S        4.12439        2.98802       -0.25752
| 28>    S        4.37163        0.01946        0.12741
| 29>    H        5.15324        2.08173        0.45667
| 30>    H        5.22390        1.23147        0.56679
| 31> *
| 32> 
| 33> 
| 34>                          ****END OF INPUT****
================================================================================

                       *****************************
                       * Geometry Optimization Run *
                       *****************************

Geometry optimization settings:
Update method            Update   .... BFGS
Choice of coordinates    CoordSys .... Z-matrix Internals
Initial Hessian          InHess   .... Almoef's Model

Convergence Tolerances:
Energy Change            TolE     ....  5.0000e-06 Eh
Max. Gradient            TolMAXG  ....  3.0000e-04 Eh/bohr
RMS Gradient             TolRMSG  ....  1.0000e-04 Eh/bohr
Max. Displacement        TolMAXD  ....  4.0000e-03 bohr
RMS Displacement         TolRMSD  ....  2.0000e-03 bohr
Strict Convergence                ....  False
------------------------------------------------------------------------------
                        ORCA OPTIMIZATION COORDINATE SETUP
------------------------------------------------------------------------------

The optimization will be done in new redundant internal coordinates
Making redundant internal coordinates   ...  (new redundants) done
Evaluating the initial hessian          ...  (Almloef) done
Evaluating the coordinates              ...  done
Calculating the B-matrix                .... done
Calculating the G-matrix                .... done
Diagonalizing the G-matrix              .... done
The first mode is                       ....  259
The number of degrees of freedom        ....   48

    -----------------------------------------------------------------
                    Redundant Internal Coordinates


    -----------------------------------------------------------------
         Definition                    Initial Value    Approx d2E/dq
    -----------------------------------------------------------------
      1. B(H   1,S   0)                  1.4786         0.232891   
      2. B(H   2,S   0)                  1.5458         0.181978   
      3. B(H   4,H   1)                  0.6694         0.323284   
      4. B(H   4,S   3)                  1.4785         0.233015   
      5. B(H   5,S   3)                  1.5453         0.182310   
      6. B(S   6,H   1)                  1.4314         0.277011   
      7. B(S   6,S   0)                  2.4368         0.097091   
      8. B(S   6,H   4)                  1.7261         0.093841   
      9. B(S   7,S   6)                  1.3862         4.605527   
     10. B(S   7,H   4)                  1.4296         0.278880   
     11. B(S   7,S   3)                  2.4250         0.101408   
     12. B(S   7,H   1)                  1.7231         0.094867   
     13. B(H   8,S   7)                  1.4442         0.264314   
     14. B(H   8,S   6)                  1.4443         0.264174   
     15. B(H   9,H   8)                  0.6666         0.326623   
     16. B(S  10,H   9)                  1.4443         0.264151   
     17. B(S  11,S  10)                  1.3995         4.386378   
     18. B(S  11,H   9)                  1.4442         0.264306   
     19. B(H  12,S  11)                  1.7255         0.094045   
     20. B(H  12,S  10)                  1.4309         0.277502   
     21. B(H  13,H  12)                  0.6692         0.323481   
     22. B(H  13,S  11)                  1.4291         0.279330   
     23. B(H  13,S  10)                  1.7279         0.093194   
     24. B(S  14,H  12)                  1.4782         0.233299   
     25. B(S  14,S  10)                  2.4320         0.098813   
     26. B(S  15,H  13)                  1.4781         0.233387   
     27. B(S  15,S  11)                  2.4198         0.103350   
     28. B(H  16,S  14)                  1.5459         0.181866   
     29. B(H  17,S  15)                  1.5454         0.182207   
     30. A(H   1,S   0,H   2)           84.0630         0.277718   
     31. A(H   2,S   0,S   6)          116.5868         0.274060   
     32. A(H   1,S   0,S   6)           32.5339         0.284686   
     33. A(S   0,H   1,S   7)          164.8252         0.251848   
     34. A(S   6,H   1,S   7)           51.1199         0.258369   
     35. A(H   4,H   1,S   6)          104.5784         0.251878   
     36. A(S   0,H   1,H   4)          141.6925         0.245606   
     37. A(S   0,H   1,S   6)          113.7182         0.296547   
     38. A(H   4,H   1,S   7)           53.4588         0.216799   
     39. A(H   4,S   3,H   5)           83.8813         0.277819   
     40. A(H   4,S   3,S   7)           32.8688         0.286646   
     41. A(H   5,S   3,S   7)          116.7429         0.275968   
     42. A(S   3,H   4,S   6)          164.0278         0.251467   
     43. A(S   6,H   4,S   7)           51.0659         0.258211   
     44. A(S   3,H   4,S   7)          112.9864         0.296888   
     45. A(H   1,H   4,S   7)          104.4437         0.252126   
     46. A(H   1,H   4,S   6)           53.3782         0.216485   
     47. A(H   1,H   4,S   3)          142.5609         0.245625   
     48. A(S   0,S   6,H   8)          107.4758         0.290349   
     49. A(H   4,S   6,H   8)           80.7298         0.256149   
     50. A(H   1,S   6,S   7)           75.3830         0.576504   
     51. A(S   0,S   6,H   4)           55.7895         0.248298   
     52. A(S   0,S   6,S   7)          109.1283         0.548645   
     53. A(S   0,S   6,H   1)           33.7480         0.292523   
     54. A(H   1,S   6,H   4)           22.0434         0.257953   
     55. A(H   4,S   6,S   7)           53.3397         0.470571   
     56. A(S   7,S   6,H   8)           61.3149         0.571296   
     57. A(H   1,S   6,H   8)           91.8128         0.302553   
     58. A(H   4,S   7,S   6)           75.5944         0.577246   
     59. A(S   3,S   7,S   6)          109.7338         0.553193   
     60. A(H   1,S   7,S   6)           53.4972         0.471511   
     61. A(S   3,S   7,H   4)           34.1448         0.294850   
     62. A(H   1,S   7,H   4)           22.0974         0.258627   
     63. A(H   1,S   7,S   3)           56.2406         0.250271   
     64. A(S   6,S   7,H   8)           61.3254         0.571354   
     65. A(S   3,S   7,H   8)          107.4884         0.292366   
     66. A(H   1,S   7,H   8)           80.8790         0.256580   
     67. A(H   4,S   7,H   8)           91.8434         0.302903   
     68. A(S   7,H   8,H   9)          151.2025         0.250533   
     69. A(S   6,H   8,H   9)          151.4005         0.250513   
     70. A(S   6,H   8,S   7)           57.3597         0.300297   
     71. A(S  10,H   9,S  11)           57.9600         0.300291   
     72. A(H   8,H   9,S  11)          150.9309         0.250532   
     73. A(H   8,H   9,S  10)          151.1066         0.250510   
     74. A(H   9,S  10,S  14)          108.3904         0.291148   
     75. A(H  12,S  10,H  13)           21.9849         0.257757   
     76. A(S  11,S  10,H  13)           53.1293         0.465793   
     77. A(H   9,S  10,H  13)           80.8503         0.255884   
     78. A(S  11,S  10,H  12)           75.1141         0.571347   
     79. A(H   9,S  10,H  12)           92.0188         0.302634   
     80. A(H   9,S  10,S  11)           61.0143         0.565994   
     81. A(H  13,S  10,S  14)           55.8797         0.248683   
     82. A(H  12,S  10,S  14)           33.8948         0.293416   
     83. A(S  11,S  10,S  14)          109.0088         0.545413   
     84. A(H  12,S  11,H  13)           22.0274         0.258355   
     85. A(S  10,S  11,H  13)           75.2974         0.572064   
     86. A(H   9,S  11,H  13)           92.0840         0.302980   
     87. A(S  10,S  11,H  12)           53.2700         0.466569   
     88. A(H   9,S  11,H  12)           80.9535         0.256249   
     89. A(H   9,S  11,S  10)           61.0257         0.566058   
     90. A(H  13,S  11,S  15)           34.3070         0.295811   
     91. A(H  12,S  11,S  15)           56.3343         0.250646   
     92. A(S  10,S  11,S  15)          109.6043         0.550075   
     93. A(H   9,S  11,S  15)          108.5777         0.293239   
     94. A(S  11,H  12,H  13)           53.2221         0.216565   
     95. A(S  10,H  12,H  13)          104.8379         0.251966   
     96. A(S  10,H  12,S  11)           51.6159         0.258104   
     97. A(H  13,H  12,S  14)          141.7304         0.245690   
     98. A(S  11,H  12,S  14)          165.0468         0.251592   
     99. A(S  10,H  12,S  14)          113.4316         0.296712   
    100. A(S  11,H  13,H  12)          104.7505         0.252208   
    101. A(S  10,H  13,H  12)           53.1772         0.216303   
    102. A(S  10,H  13,S  11)           51.5734         0.258007   
    103. A(H  12,H  13,S  15)          142.5788         0.245703   
    104. A(S  11,H  13,S  15)          112.6702         0.297039   
    105. A(S  10,H  13,S  15)          164.2433         0.251272   
    106. A(H  12,S  14,H  16)           84.0371         0.277767   
    107. A(S  10,S  14,H  16)          116.7070         0.274772   
    108. A(S  10,S  14,H  12)           32.6735         0.285544   
    109. A(H  13,S  15,H  17)           83.8596         0.277863   
    110. A(S  11,S  15,H  17)          116.8780         0.276748   
    111. A(S  11,S  15,H  13)           33.0229         0.287569   
    112. D(S   6,H   1,S   0,H   2)    178.6126         0.009925   
    113. D(H   4,H   1,S   0,H   2)      0.0739         0.009925   
    114. D(H   4,H   1,S   0,S   6)   -178.5387         0.009925   
    115. D(S   7,H   1,S   0,H   2)    176.4311         0.009925   
    116. D(S   7,H   1,S   0,S   6)     -2.1815         0.009925   
    117. D(S   6,H   4,S   3,S   7)      2.9324         0.009935   
    118. D(S   3,H   4,H   1,S   7)   -178.7362         7.141142   
    119. D(H   1,H   4,S   3,H   5)     -0.1570         0.009935   
    120. D(S   6,H   4,S   3,H   5)   -175.8952         0.009935   
    121. D(S   3,H   4,H   1,S   0)      0.0776         7.141142   
    122. D(S   6,H   4,H   1,S   7)     -0.1962         7.141142   
    123. D(S   7,H   4,H   1,S   6)      0.1962         7.141142   
    124. D(S   7,H   4,S   3,H   5)   -178.8276         0.009935   
    125. D(H   1,H   4,S   3,S   7)    178.6706         0.009935   
    126. D(S   3,H   4,H   1,S   6)   -178.5400         7.141142   
    127. D(S   6,H   4,H   1,S   0)    178.6176         7.141142   
    128. D(S   7,H   4,H   1,S   0)    178.8139         7.141142   
    129. D(H   8,S   6,S   0,H   1)     65.6995         0.001562   
    130. D(S   7,S   6,H   1,S   0)   -179.2666         0.015777   
    131. D(S   0,S   6,H   1,H   4)    179.0641         0.015777   
    132. D(H   8,S   6,H   1,S   0)   -119.5683         0.015777   
    133. D(S   7,S   6,H   1,H   4)     -0.2025         0.015777   
    134. D(S   7,S   6,S   0,H   2)     -0.7920         0.001562   
    135. D(H   4,S   6,H   1,S   7)      0.2025         0.015777   
    136. D(S   0,S   6,H   1,S   7)    179.2666         0.015777   
    137. D(H   4,S   6,H   1,S   0)   -179.0641         0.015777   
    138. D(H   1,S   6,H   4,S   7)   -179.7557         0.002881   
    139. D(H   4,S   6,S   0,H   1)      0.4247         0.001562   
    140. D(H   8,S   6,H   4,S   7)     61.0014         0.002881   
    141. D(S   0,S   6,H   4,H   1)     -0.6287         0.002881   
    142. D(H   8,S   6,H   1,S   7)     59.6983         0.015777   
    143. D(H   8,S   6,S   0,H   2)     64.1563         0.001562   
    144. D(H   8,S   6,H   4,H   1)   -119.2429         0.002881   
    145. D(S   0,S   6,H   4,S   3)    176.1445         0.002881   
    146. D(H   8,S   6,H   4,S   3)     57.5303         0.002881   
    147. D(S   7,S   6,S   0,H   1)      0.7511         0.001562   
    148. D(S   7,S   6,H   4,S   3)     -3.4711         0.002881   
    149. D(S   7,S   6,H   4,H   1)    179.7557         0.002881   
    150. D(H   1,S   6,S   0,H   2)     -1.5432         0.001562   
    151. D(H   8,S   6,H   1,H   4)     59.4958         0.015777   
    152. D(H   4,S   6,S   0,H   2)     -1.1184         0.001562   
    153. D(H   1,S   6,H   4,S   3)    176.7732         0.002881   
    154. D(S   0,S   6,H   4,S   7)    179.6156         0.002881   
    155. D(S   6,S   7,S   3,H   4)     -1.0670         0.001568   
    156. D(H   8,S   7,S   3,H   5)    -64.8352         0.001568   
    157. D(S   6,S   7,S   3,H   5)      0.2383         0.001568   
    158. D(H   1,S   7,H   4,S   6)      0.2025         0.015992   
    159. D(H   4,S   7,S   3,H   5)      1.3054         0.001568   
    160. D(H   1,S   7,H   4,S   3)    179.1655         0.015992   
    161. D(H   1,S   7,S   3,H   4)     -0.3776         0.001568   
    162. D(H   8,S   7,H   1,S   6)    -60.9371         0.002913   
    163. D(H   8,S   7,H   1,H   4)    118.8189         0.002913   
    164. D(S   3,S   7,H   4,H   1)   -179.1655         0.015992   
    165. D(H   1,S   7,S   3,H   5)      0.9278         0.001568   
    166. D(H   8,S   7,H   1,S   0)    -58.3712         0.002913   
    167. D(S   6,S   7,H   1,H   4)    179.7561         0.002913   
    168. D(S   6,S   7,H   1,S   0)      2.5659         0.002913   
    169. D(H   8,S   7,S   3,H   4)    -66.1405         0.001568   
    170. D(H   4,S   7,H   1,S   6)   -179.7561         0.002913   
    171. D(S   3,S   7,H   1,S   6)   -179.1927         0.002913   
    172. D(S   3,S   7,H   1,S   0)   -176.6268         0.002913   
    173. D(S   3,S   7,H   1,H   4)      0.5634         0.002913   
    174. D(H   4,S   7,S   6,H   8)   -100.2727         0.195607   
    175. D(H   8,S   7,S   6,H   1)    100.3674         0.195607   
    176. D(H   8,S   7,S   6,S   0)     99.9362         0.195607   
    177. D(H   4,S   7,H   1,S   0)   -177.1902         0.002913   
    178. D(H   4,S   7,S   6,H   1)      0.0947         0.195607   
    179. D(H   4,S   7,S   6,S   0)     -0.3365         0.195607   
    180. D(S   3,S   7,S   6,H   8)    -99.6544         0.195607   
    181. D(S   3,S   7,S   6,H   4)      0.6183         0.195607   
    182. D(S   3,S   7,S   6,H   1)      0.7131         0.195607   
    183. D(S   3,S   7,S   6,S   0)      0.2818         0.195607   
    184. D(H   1,S   7,S   6,H   8)   -100.3674         0.195607   
    185. D(H   8,S   7,H   4,S   6)    -59.7394         0.015992   
    186. D(H   1,S   7,S   6,S   0)     -0.4312         0.195607   
    187. D(H   8,S   7,H   4,S   3)    119.2237         0.015992   
    188. D(H   8,S   7,H   4,H   1)    -59.9418         0.015992   
    189. D(H   8,S   7,S   6,H   4)    100.2727         0.195607   
    190. D(S   6,S   7,H   4,S   3)    178.9631         0.015992   
    191. D(S   6,S   7,H   4,H   1)     -0.2025         0.015992   
    192. D(S   3,S   7,H   4,S   6)   -178.9631         0.015992   
    193. D(H   1,S   7,S   6,H   4)     -0.0947         0.195607   
    194. D(H   9,H   8,S   7,S   6)   -177.7556         0.013527   
    195. D(H   9,H   8,S   7,S   3)    -74.3889         0.013527   
    196. D(H   9,H   8,S   7,H   1)   -124.5461         0.013527   
    197. D(S   6,H   8,S   7,H   4)     72.4638         0.013527   
    198. D(S   6,H   8,S   7,H   1)     53.2094         0.013527   
    199. D(H   9,H   8,S   6,S   7)    177.7413         0.013513   
    200. D(H   9,H   8,S   6,H   4)    124.6326         0.013513   
    201. D(S   6,H   8,S   7,S   3)    103.3666         0.013527   
    202. D(H   9,H   8,S   6,H   1)    105.5069         0.013513   
    203. D(H   9,H   8,S   6,S   0)     75.0710         0.013513   
    204. D(S   7,H   8,S   6,H   1)    -72.2345         0.013513   
    205. D(H   9,H   8,S   7,H   4)   -105.2918         0.013527   
    206. D(S   7,H   8,S   6,S   0)   -102.6703         0.013513   
    207. D(S   7,H   8,S   6,H   4)    -53.1087         0.013513   
    208. D(S  11,H   9,H   8,S   7)    -15.2760         6.257237   
    209. D(S  11,H   9,H   8,S   6)    168.6744         6.257237   
    210. D(S  10,H   9,H   8,S   7)    165.7323         6.257237   
    211. D(S  10,H   9,H   8,S   6)    -10.3173         6.257237   
    212. D(S  14,S  10,H   9,H   8)     77.4045         0.013511   
    213. D(H  13,S  10,H   9,S  11)    -52.7320         0.013511   
    214. D(H  13,S  10,H   9,H   8)    126.6901         0.013511   
    215. D(H  12,S  10,H   9,S  11)    -71.7363         0.013511   
    216. D(H  12,S  10,H   9,H   8)    107.6858         0.013511   
    217. D(S  14,S  10,H   9,S  11)   -102.0176         0.013511   
    218. D(S  11,S  10,H   9,H   8)    179.4221         0.013511   
    219. D(S  15,S  11,S  10,H  13)     -0.0639         0.175459   
    220. D(S  15,S  11,S  10,H  12)     -0.0253         0.175459   
    221. D(S  15,S  11,S  10,H   9)   -100.9156         0.175459   
    222. D(H  13,S  11,S  10,H  12)      0.0386         0.175459   
    223. D(H  13,S  11,S  10,H   9)   -100.8517         0.175459   
    224. D(H  12,S  11,S  10,S  14)      0.0988         0.175459   
    225. D(H  12,S  11,S  10,H  13)     -0.0386         0.175459   
    226. D(H  12,S  11,S  10,H   9)   -100.8903         0.175459   
    227. D(H   9,S  11,S  10,S  14)    100.9891         0.175459   
    228. D(H   9,S  11,S  10,H  13)    100.8517         0.175459   
    229. D(H   9,S  11,S  10,H  12)    100.8903         0.175459   
    230. D(S  15,S  11,H   9,S  10)    102.6209         0.013526   
    231. D(S  15,S  11,H   9,H   8)    -76.8044         0.013526   
    232. D(H  13,S  11,H   9,S  10)     71.9134         0.013526   
    233. D(H  13,S  11,S  10,S  14)      0.1374         0.175459   
    234. D(H  13,S  11,H   9,H   8)   -107.5119         0.013526   
    235. D(H  12,S  11,H   9,S  10)     52.8391         0.013526   
    236. D(H  12,S  11,H   9,H   8)   -126.5862         0.013526   
    237. D(S  15,S  11,S  10,S  14)      0.0735         0.175459   
    238. D(S  10,S  11,H   9,H   8)   -179.4253         0.013526   
    239. D(S  14,H  12,S  11,S  15)    179.3757         0.002887   
    240. D(S  14,H  12,S  11,H  13)    179.5038         0.002887   
    241. D(S  14,H  12,S  11,S  10)     -0.5957         0.002887   
    242. D(H  13,H  12,S  11,S  15)     -0.1281         0.002887   
    243. D(H  13,H  12,S  11,S  10)    179.9005         0.002887   
    244. D(H  13,H  12,S  11,H   9)    119.4532         0.002887   
    245. D(S  10,H  12,S  11,S  15)    179.9714         0.002887   
    246. D(S  10,H  12,S  11,H  13)   -179.9005         0.002887   
    247. D(S  10,H  12,S  11,H   9)    -60.4474         0.002887   
    248. D(S  14,H  12,S  10,H  13)    179.9149         0.015833   
    249. D(S  14,H  12,S  10,S  11)    179.8325         0.015833   
    250. D(S  14,H  12,S  10,H   9)   -120.9047         0.015833   
    251. D(H  13,H  12,S  10,S  14)   -179.9149         0.015833   
    252. D(H  13,H  12,S  10,S  11)     -0.0824         0.015833   
    253. D(S  14,H  12,S  11,H   9)    -61.0431         0.002887   
    254. D(H  13,H  12,S  10,H   9)     59.1804         0.015833   
    255. D(S  11,H  12,S  10,S  14)   -179.8325         0.015833   
    256. D(S  11,H  12,S  10,H  13)      0.0824         0.015833   
    257. D(S  11,H  12,S  10,H   9)     59.2628         0.015833   
    258. D(S  15,H  13,H  12,S  14)     -0.0805         7.154592   
    259. D(S  15,H  13,H  12,S  10)    179.7934         7.154592   
    260. D(S  11,H  13,H  12,S  14)   -179.7933         7.154592   
    261. D(S  11,H  13,H  12,S  10)      0.0807         7.154592   
    262. D(S  10,H  13,H  12,S  11)     -0.0807         7.154592   
    263. D(S  15,H  13,S  11,H  12)   -179.8108         0.016044   
    264. D(S  15,H  13,S  11,S  10)   -179.8933         0.016044   
    265. D(S  15,H  13,S  11,H   9)    120.8169         0.016044   
    266. D(H  12,H  13,S  11,S  15)    179.8108         0.016044   
    267. D(H  12,H  13,S  11,S  10)     -0.0824         0.016044   
    268. D(H  12,H  13,S  11,H   9)    -59.3723         0.016044   
    269. D(S  10,H  13,S  11,S  15)    179.8933         0.016044   
    270. D(S  10,H  13,S  11,H  12)      0.0824         0.016044   
    271. D(S  10,H  13,S  11,H   9)    -59.2899         0.016044   
    272. D(S  15,H  13,S  10,S  14)   -179.4804         0.002861   
    273. D(S  15,H  13,S  10,H  12)   -179.5377         0.002861   
    274. D(S  15,H  13,S  10,S  11)      0.3627         0.002861   
    275. D(S  15,H  13,S  10,H   9)     60.8411         0.002861   
    276. D(H  12,H  13,S  10,S  14)      0.0573         0.002861   
    277. D(S  10,H  13,H  12,S  14)   -179.8739         7.154592   
    278. D(H  12,H  13,S  10,S  11)    179.9004         0.002861   
    279. D(H  12,H  13,S  10,H   9)   -119.6212         0.002861   
    280. D(S  11,H  13,S  10,S  14)   -179.8431         0.002861   
    281. D(S  15,H  13,H  12,S  11)    179.7128         7.154592   
    282. D(S  11,H  13,S  10,H  12)   -179.9004         0.002861   
    283. D(S  11,H  13,S  10,H   9)     60.4784         0.002861   
    284. D(H  16,S  14,H  12,H  13)      0.7014         0.009957   
    285. D(H  16,S  14,H  12,S  10)   -179.1658         0.009957   
    286. D(S  10,S  14,H  12,H  13)    179.8672         0.009957   
    287. D(S  10,S  14,H  12,S  11)      0.5089         0.009957   
    288. D(H  16,S  14,S  10,H  13)      0.8903         0.001565   
    289. D(H  16,S  14,S  10,H  12)      0.9288         0.001565   
    290. D(H  16,S  14,S  10,S  11)      0.7575         0.001565   
    291. D(H  16,S  14,S  10,H   9)     65.5695         0.001565   
    292. D(H  12,S  14,S  10,H  13)     -0.0385         0.001565   
    293. D(H  16,S  14,H  12,S  11)   -178.6569         0.009957   
    294. D(H  12,S  14,S  10,S  11)     -0.1712         0.001565   
    295. D(H  12,S  14,S  10,H   9)     64.6407         0.001565   
    296. D(H  17,S  15,H  13,H  12)     -0.6106         0.009965   
    297. D(H  17,S  15,H  13,S  11)    179.0884         0.009965   
    298. D(H  17,S  15,H  13,S  10)    178.7805         0.009965   
    299. D(S  11,S  15,H  13,H  12)   -179.6990         0.009965   
    300. D(S  11,S  15,H  13,S  10)     -0.3079         0.009965   
    301. D(H  17,S  15,S  11,H  13)     -1.0162         0.001570   
    302. D(H  17,S  15,S  11,H  12)     -0.9309         0.001570   
    303. D(H  17,S  15,S  11,S  10)     -0.9066         0.001570   
    304. D(H  17,S  15,S  11,H   9)    -65.8961         0.001570   
    305. D(H  13,S  15,S  11,H  12)      0.0852         0.001570   
    306. D(H  13,S  15,S  11,S  10)      0.1096         0.001570   
    307. D(H  13,S  15,S  11,H   9)    -64.8800         0.001570   
    -----------------------------------------------------------------

Number of atoms                         .... 18
Number of degrees of freedom            .... 307

         *************************************************************
         *                GEOMETRY OPTIMIZATION CYCLE   1            *
         *************************************************************
---------------------------------
CARTESIAN COORDINATES (ANGSTROEM)
---------------------------------
  S     -1.666820    2.939880   -0.266810
  H     -1.004220    1.717190    0.235530
  H     -2.637940    1.943530   -0.940350
  S     -1.856920   -0.056810   -0.340090
  H     -1.049950    1.049650    0.217110
  H     -2.692130    1.085280   -0.961350
  S      0.160830    1.976850    1.025570
  S      0.062680    0.594530    0.990810
  H      1.002390    1.244940    0.107880
  H      1.461860    1.223230   -0.374530
  S      2.275510    1.872130   -1.376050
  S      2.399180    0.490180   -1.192910
  H      3.460750    1.709980   -0.590900
  H      3.518910    1.049160   -0.502850
  S      4.124390    2.988020   -0.257520
  S      4.371630    0.019460    0.127410
  H      5.153240    2.081730    0.456670
  H      5.223900    1.231470    0.566790

----------------------------
CARTESIAN COORDINATES (A.U.)
----------------------------
  NO LB      ZA    FRAG     MASS         X           Y           Z
   0 S    16.0000    0    32.060   -3.149833    5.555568   -0.504198
   1 H     1.0000    0     1.008   -1.897701    3.245019    0.445087
   2 H     1.0000    0     1.008   -4.984984    3.672739   -1.777004
   3 S    16.0000    0    32.060   -3.509070   -0.107355   -0.642677
   4 H     1.0000    0     1.008   -1.984118    1.983551    0.410278
   5 H     1.0000    0     1.008   -5.087388    2.050882   -1.816688
   6 S    16.0000    0    32.060    0.303925    3.735705    1.938046
   7 S    16.0000    0    32.060    0.118448    1.123499    1.872360
   8 H     1.0000    0     1.008    1.894243    2.352596    0.203864
   9 H     1.0000    0     1.008    2.762515    2.311570   -0.707759
  10 S    16.0000    0    32.060    4.300091    3.537813   -2.600358
  11 S    16.0000    0    32.060    4.533793    0.926306   -2.254273
  12 H     1.0000    0     1.008    6.539870    3.231394   -1.116639
  13 H     1.0000    0     1.008    6.649776    1.982625   -0.950249
  14 S    16.0000    0    32.060    7.793968    5.646539   -0.486642
  15 S    16.0000    0    32.060    8.261183    0.036774    0.240770
  16 H     1.0000    0     1.008    9.738212    3.933900    0.862981
  17 H     1.0000    0     1.008    9.871740    2.327141    1.071078

--------------------------------
INTERNAL COORDINATES (ANGSTROEM)
--------------------------------
 S      0   0   0     0.000000000000     0.00000000     0.00000000
 H      1   0   0     1.478632838706     0.00000000     0.00000000
 H      1   2   0     1.545782490682    84.06295901     0.00000000
 S      2   1   3     2.050734423176   115.69829950     0.11165581
 H      2   1   3     0.669358036405   141.69254868     0.07390195
 H      3   1   2     0.860215448943   133.89199708   359.89002542
 S      2   1   3     1.431407705617   113.71815480   178.61259858
 S      7   2   1     1.386236005340    75.38295346   180.73339927
 H      8   7   2     1.444179156857    61.32537852   100.36742648
 H      9   8   7     0.666560884766   151.20251933   182.24444810
 S     10   9   8     1.444347549207   151.10662648   165.73225472
 S     11  10   9     1.399507174330    61.01426828   179.42209507
 H     11  10   9     1.430925226069    92.01884387   107.68580760
 H     13  11  10     0.669192394234   104.83789410    59.18037471
 S     13  11  10     1.478156458431   113.43164015   239.09527442
 S     14  13  11     1.478053164132   142.57882315   179.79342317
 H     15  13  11     1.545949948317    84.03710044   180.83420177
 H     17  15  13     0.860268166097   133.88507392   359.43773053

---------------------------
INTERNAL COORDINATES (A.U.)
---------------------------
 S      0   0   0     0.000000000000     0.00000000     0.00000000
 H      1   0   0     2.794211117777     0.00000000     0.00000000
 H      1   2   0     2.921105570000    84.06295901     0.00000000
 S      2   1   3     3.875326433208   115.69829950     0.11165581
 H      2   1   3     1.264903374345   141.69254868     0.07390195
 H      3   1   2     1.625571614670   133.89199708   359.89002542
 S      2   1   3     2.704968549601   113.71815480   178.61259858
 S      7   2   1     2.619606407073    75.38295346   180.73339927
 H      8   7   2     2.729103094777    61.32537852   100.36742648
 H      9   8   7     1.259617523792   151.20251933   182.24444810
 S     10   9   8     2.729421310201   151.10662648   165.73225472
 S     11  10   9     2.644685281941    61.01426828   179.42209507
 H     11  10   9     2.704056795389    92.01884387   107.68580760
 H     13  11  10     1.264590356004   104.83789410    59.18037471
 S     13  11  10     2.793310889521   113.43164015   239.09527442
 S     14  13  11     2.793115691585   142.57882315   179.79342317
 H     15  13  11     2.921422019068    84.03710044   180.83420177
 H     17  15  13     1.625671235654   133.88507392   359.43773053

---------------------
BASIS SET INFORMATION
---------------------
There are 2 groups of distinct atoms

 Group   1 Type S   : 14s9p3d1f contracted to 5s5p2d1f pattern {73211/51111/21/1}
 Group   2 Type H   : 5s1p contracted to 3s1p pattern {311/1}

Atom   0S    basis set group =>   1
Atom   1H    basis set group =>   2
Atom   2H    basis set group =>   2
Atom   3S    basis set group =>   1
Atom   4H    basis set group =>   2
Atom   5H    basis set group =>   2
Atom   6S    basis set group =>   1
Atom   7S    basis set group =>   1
Atom   8H    basis set group =>   2
Atom   9H    basis set group =>   2
Atom  10S    basis set group =>   1
Atom  11S    basis set group =>   1
Atom  12H    basis set group =>   2
Atom  13H    basis set group =>   2
Atom  14S    basis set group =>   1
Atom  15S    basis set group =>   1
Atom  16H    basis set group =>   2
Atom  17H    basis set group =>   2
---------------------------------
AUXILIARY/J BASIS SET INFORMATION
---------------------------------
There are 2 groups of distinct atoms

 Group   1 Type S   : 14s5p5d2f1g contracted to 8s4p3d1f1g pattern {71111111/2111/311/2/1}
 Group   2 Type H   : 5s2p1d contracted to 3s1p1d pattern {311/2/1}

Atom   0S    basis set group =>   1
Atom   1H    basis set group =>   2
Atom   2H    basis set group =>   2
Atom   3S    basis set group =>   1
Atom   4H    basis set group =>   2
Atom   5H    basis set group =>   2
Atom   6S    basis set group =>   1
Atom   7S    basis set group =>   1
Atom   8H    basis set group =>   2
Atom   9H    basis set group =>   2
Atom  10S    basis set group =>   1
Atom  11S    basis set group =>   1
Atom  12H    basis set group =>   2
Atom  13H    basis set group =>   2
Atom  14S    basis set group =>   1
Atom  15S    basis set group =>   1
Atom  16H    basis set group =>   2
Atom  17H    basis set group =>   2
--------------------------------------------------------------------------
[[22380,1],1]: A high-performance Open MPI point-to-point messaging module
was unable to find any relevant network interfaces:

Module: OpenFabrics (openib)
  Host: compute-0-5

Another transport will be used instead, although this may result in
lower performance.

NOTE: You can disable this warning by setting the MCA parameter
btl_base_warn_component_unused to 0.
--------------------------------------------------------------------------


           ************************************************************
           *        Program running with 4 parallel MPI-processes     *
           *              working on a common directory               *
           ************************************************************
------------------------------------------------------------------------------
                           ORCA GTO INTEGRAL CALCULATION
------------------------------------------------------------------------------

                         BASIS SET STATISTICS AND STARTUP INFO

 # of primitive gaussian shells          ...  276
 # of primitive gaussian functions       ...  584
 # of contracted shells                  ...  144
 # of contracted basis functions         ...  356
 Highest angular momentum                ...    3
 Maximum contraction depth               ...    7
 Integral package used                   ... LIBINT
 Integral threshhold            Thresh   ...  2.500e-11
 Primitive cut-off              TCut     ...  2.500e-12


------------------------------ INTEGRAL EVALUATION ----------------------------


 * One electron integrals 
 Pre-screening matrix                    ... done
 Shell pair data                         ... done (   0.004 sec)

[compute-0-5.local:23552] 3 more processes have sent help message help-mpi-btl-base.txt / btl:no-nics
[compute-0-5.local:23552] Set MCA parameter "orte_base_help_aggregate" to 0 to see all help / error messages
--------------------------------------------------------------------------
[[22398,1],0]: A high-performance Open MPI point-to-point messaging module
was unable to find any relevant network interfaces:

Module: OpenFabrics (openib)
  Host: compute-0-5

Another transport will be used instead, although this may result in
lower performance.

NOTE: You can disable this warning by setting the MCA parameter
btl_base_warn_component_unused to 0.
--------------------------------------------------------------------------


           ************************************************************
           *        Program running with 4 parallel MPI-processes     *
           *              working on a common directory               *
           ************************************************************
-------------------------------------------------------------------------------
                                 ORCA SCF
-------------------------------------------------------------------------------

------------
SCF SETTINGS
------------
Hamiltonian:
 Density Functional     Method          .... DFT(GTOs)
 Exchange Functional    Exchange        .... WB97X-D3
 Correlation Functional Correlation     .... WB97X-D3
 Gradients option       PostSCFGGA      .... off
 Hybrid DFT is turned on
   Fraction HF Exchange ScalHFX         ....  0.195728
   Scaling of DF-GGA-X  ScalDFX         ....  0.000000
   Scaling of DF-GGA-C  ScalDFC         ....  1.000000
   Scaling of DF-LDA-C  ScalLDAC        ....  1.000000
   Perturbative correction              ....  0.000000
   Density functional embedding theory  .... OFF
 Long-range corrected/Screened/Range-Separated Hybrid DFT is turned on
   Amount of maximum screened exact exchange              ....  0.804272
   Range separation parameter mu (erf(mu*r12)/r12)        ....  0.250000


General Settings:
 Integral files         IntName         .... BEDT-TTF
 Hartree-Fock type      HFTyp           .... RHF
 Total Charge           Charge          ....    0
 Multiplicity           Mult            ....    1
 Number of Electrons    NEL             ....  138
 Basis Dimension        Dim             ....  356
 Nuclear Repulsion      ENuc            ....   1427.0151844647 Eh

Convergence Acceleration:
 DIIS                   CNVDIIS         .... on
   Start iteration      DIISMaxIt       ....    12
   Startup error        DIISStart       ....  0.200000
   # of expansion vecs  DIISMaxEq       ....     5
   Bias factor          DIISBfac        ....   1.050
   Max. coefficient     DIISMaxC        ....  10.000
 Newton-Raphson         CNVNR           .... off
 SOSCF                  CNVSOSCF        .... on
   Start iteration      SOSCFMaxIt      ....   150
   Startup grad/error   SOSCFStart      ....  0.003300
 Level Shifting         CNVShift        .... on
   Level shift para.    LevelShift      ....    0.2500
   Turn off err/grad.   ShiftErr        ....    0.0010
 Zerner damping         CNVZerner       .... off
 Static damping         CNVDamp         .... on
   Fraction old density DampFac         ....    0.7000
   Max. Damping (<1)    DampMax         ....    0.9800
   Min. Damping (>=0)   DampMin         ....    0.0000
   Turn off err/grad.   DampErr         ....    0.1000
 Fernandez-Rico         CNVRico         .... off

SCF Procedure:
 Maximum # iterations   MaxIter         ....   125
 SCF integral mode      SCFMode         .... Direct
   Integral package                     .... LIBINT
 Reset frequency        DirectResetFreq ....    20
 Integral Threshold     Thresh          ....  2.500e-11 Eh
 Primitive CutOff       TCut            ....  2.500e-12 Eh

Convergence Tolerance:
 Convergence Check Mode ConvCheckMode   .... Total+1el-Energy
 Convergence forced     ConvForced      .... 0
 Energy Change          TolE            ....  1.000e-08 Eh
 1-El. energy change                    ....  1.000e-05 Eh
 Orbital Gradient       TolG            ....  1.000e-05
 Orbital Rotation angle TolX            ....  1.000e-05
 DIIS Error             TolErr          ....  5.000e-07


Diagonalization of the overlap matrix:
Smallest eigenvalue                        ... 1.417e-04
Time for diagonalization                   ...    0.037 sec
Threshold for overlap eigenvalues          ... 1.000e-08
Number of eigenvalues below threshold      ... 0
Time for construction of square roots      ...    0.018 sec
Total time needed                          ...    0.055 sec

-------------------
DFT GRID GENERATION
-------------------

General Integration Accuracy     IntAcc      ...  4.340
Radial Grid Type                 RadialGrid  ... Gauss-Chebyshev
Angular Grid (max. acc.)         AngularGrid ... Lebedev-110
Angular grid pruning method      GridPruning ... 3 (G Style)
Weight generation scheme         WeightScheme... Becke
Basis function cutoff            BFCut       ...    1.0000e-11
Integration weight cutoff        WCut        ...    1.0000e-14
Grids for H and He will be reduced by one unit

# of grid points (after initial pruning)     ...  22388 (   0.0 sec)
# of grid points (after weights+screening)   ...  20687 (   0.0 sec)
nearest neighbour list constructed           ...    0.0 sec
Grid point re-assignment to atoms done       ...    0.0 sec
Grid point division into batches done        ...    0.0 sec
Reduced shell lists constructed in    0.1 sec

Total number of grid points                  ...    20687
Total number of batches                      ...      334
Average number of points per batch           ...       61
Average number of grid points per atom       ...     1149
Average number of shells per batch           ...    73.62 (51.13%)
Average number of basis functions per batch  ...   188.21 (52.87%)
Average number of large shells per batch     ...    53.60 (72.80%)
Average number of large basis fcns per batch ...   136.64 (72.60%)
Maximum spatial batch extension              ...  16.04, 16.89, 18.77 au
Average spatial batch extension              ...   1.02,  0.94,  1.09 au

Time for grid setup =    0.169 sec

------------------------------
INITIAL GUESS: MODEL POTENTIAL
------------------------------
Loading Hartree-Fock densities                     ... done
Calculating cut-offs                               ... done
Setting up the integral package                    ... done
Initializing the effective Hamiltonian             ... done
Starting the Coulomb interaction                   ... done (   0.2 sec)
Reading the grid                                   ... done
Mapping shells                                     ... done
Starting the XC term evaluation                    ... done (   0.2 sec)
  promolecular density results
     # of electrons  =    138.014001871
     EX              =   -203.215657730
     EC              =     -5.465737744
     EX+EC           =   -208.681395474
Transforming the Hamiltonian                       ... done (   0.0 sec)
Diagonalizing the Hamiltonian                      ... done (   0.0 sec)
Back transforming the eigenvectors                 ... done (   0.0 sec)
Now organizing SCF variables                       ... done
                      ------------------
                      INITIAL GUESS DONE (   0.7 sec)
                      ------------------

--------------------
CPCM SOLVATION MODEL
--------------------
CPCM parameters:
  Epsilon                                         ...       3.0000
  Refrac                                          ...       1.3300
  Rsolv                                           ...       1.3000
  Surface type                                    ...    GEPOL SES
  Epsilon function type                           ...         CPCM
Radii:
 Radius for S  used is    4.0818 Bohr (=   2.1600 Ang.)
 Radius for H  used is    2.4566 Bohr (=   1.3000 Ang.)
Calculating surface                               ...        done! (  0.1s)
GEPOL surface points                              ...          551
GEPOL Volume                                      ...    1685.7573
GEPOL Surface-area                                ...     821.1580
Calculating surface distance matrix               ...        done! (  0.0s)
Performing Cholesky decomposition & store         ...        done! (  0.0s)
Overall time for CPCM initialization              ...                 0.1s
--------------
SCF ITERATIONS
--------------
ITER       Energy         Delta-E        Max-DP      RMS-DP      [F,P]     Damp
               ***  Starting incremental Fock matrix formation  ***
[compute-0-5.local:23570] 3 more processes have sent help message help-mpi-btl-base.txt / btl:no-nics
[compute-0-5.local:23570] Set MCA parameter "orte_base_help_aggregate" to 0 to see all help / error messages
  0  -3189.4255537907   0.000000000000 0.05037365  0.00092706  0.1342992 0.7000
  1  -3189.4895393240  -0.063985533326 0.06704096  0.00076205  0.0803779 0.7000
                               ***Turning on DIIS***
  2  -3189.5242375543  -0.034698230204 0.19222834  0.00174507  0.0417215 0.0000
  3  -3189.5851740109  -0.060936456615 0.04154048  0.00057215  0.0289709 0.0000
  4  -3189.5930682693  -0.007894258439 0.01833607  0.00021578  0.0034704 0.0000
  5  -3189.5940299957  -0.000961726400 0.01017161  0.00015498  0.0020427 0.0000
  6  -3189.5948015300  -0.000771534303 0.00536760  0.00014242  0.0021125 0.0000
  7  -3189.5955799228  -0.000778392841 0.00241940  0.00010290  0.0021684 0.0000
                      *** Initiating the SOSCF procedure ***
                           *** Shutting down DIIS ***
                      *** Re-Reading the Fockian *** 
                      *** Removing any level shift *** 
ITER      Energy       Delta-E        Grad      Rot      Max-DP    RMS-DP
  8  -3189.59616976  -0.0005898406  0.001871  0.001871  0.000905  0.000035
               *** Restarting incremental Fock matrix formation ***
  9  -3189.59634153  -0.0001717639  0.008112  0.062933  0.009927  0.000428
 10  -3189.59909960  -0.0027580718  0.009560  0.422852  0.065167  0.002721
 11  -3189.59132443   0.0077751741  0.003543  0.108677  0.019288  0.000798
 12  -3189.59045358   0.0008708500  0.003892  0.013875  0.012552  0.000179
 13  -3189.59141328  -0.0009597080  0.001512  0.013914  0.006656  0.000130
 14  -3189.59146218  -0.0000488980  0.001004  0.068550  0.029859  0.000655
 15  -3189.59175546  -0.0002932828  0.002487  6.019931  2.715251  0.019369
 16  -3188.19685968   1.3948957791  0.087734  6.283878  2.746795  0.019629
 17  -3189.58995772  -1.3930980339  0.007320  0.178172  0.061778  0.001524
 18  -3189.58855483   0.0014028863  0.009499  0.070366  0.023526  0.000590
 19  -3189.59135076  -0.0027959255  0.007815  0.172057  0.068397  0.001729
 20  -3189.59115963   0.0001911314  0.002911  0.099992  0.037577  0.000991
 21  -3189.59179013  -0.0006305083  0.004801  0.106200  0.038818  0.001036
 22  -3189.59189035  -0.0001002103  0.008806  0.039718  0.014209  0.000374
 23  -3189.59217115  -0.0002808015  0.007082  0.031291  0.011305  0.000290
 24  -3189.59290212  -0.0007309739  0.006759  0.369303  0.091510  0.003063
 25  -3189.59639449  -0.0034923664  0.009062  0.089981  0.030209  0.000982
 26  -3189.59814619  -0.0017516996  0.008375  0.110645  0.032724  0.001082
 27  -3189.60133843  -0.0031922393  0.008962  0.240561  0.046930  0.001946
 28  -3189.60043925   0.0008991790  0.011955  0.166825  0.035634  0.001329
               *** Restarting incremental Fock matrix formation ***
 29  -3189.60499489  -0.0045556394  0.008908  0.038995  0.011634  0.000348
 30  -3189.60690753  -0.0019126454  0.008623  0.271107  0.059101  0.001905
 31  -3189.61306505  -0.0061575194  0.006070  0.101948  0.059290  0.001348
 32  -3189.61523819  -0.0021731407  0.006433  0.145004  0.047051  0.001307
 33  -3189.61957442  -0.0043362280  0.003469  0.038853  0.014694  0.000448
 34  -3189.62085155  -0.0012771312  0.002184  0.028274  0.012812  0.000348
 35  -3189.62145751  -0.0006059583  0.001842  0.036262  0.013369  0.000306
 36  -3189.62173501  -0.0002775044  0.001641  0.015702  0.007008  0.000181
 37  -3189.62193469  -0.0001996777  0.001630  0.036409  0.016632  0.000391
 38  -3189.62224390  -0.0003092079  0.001604  0.089056  0.035584  0.000855
 39  -3189.62280618  -0.0005622827  0.001944  0.185219  0.063135  0.001617
 40  -3189.62250339   0.0003027917  0.005383  0.096573  0.040413  0.000954
 41  -3189.62386759  -0.0013642036  0.001689  0.048732  0.013054  0.000410
 42  -3189.62451929  -0.0006516945  0.001384  0.222424  0.062352  0.001819
 43  -3189.62429617   0.0002231188  0.004688  0.136966  0.046045  0.001127
 44  -3189.62528037  -0.0009842041  0.000758  0.028183  0.008935  0.000241
 45  -3189.62537909  -0.0000987136  0.000304  0.026115  0.008692  0.000221
 46  -3189.62540411  -0.0000250188  0.000382  0.001834  0.000784  0.000022
 47  -3189.62541066  -0.0000065491  0.000219  0.001465  0.000826  0.000021
 48  -3189.62541399  -0.0000033350  0.000058  0.002347  0.000895  0.000022
               *** Restarting incremental Fock matrix formation ***
 49  -3189.62541461  -0.0000006238  0.000046  0.000653  0.000213  0.000006
 50  -3189.62541474  -0.0000001261  0.000020  0.000160  0.000115  0.000003
 51  -3189.62541478  -0.0000000434  0.000009  0.000082  0.000054  0.000001
                 **** Energy Check signals convergence ****
              ***Rediagonalizing the Fockian in SOSCF/NRSCF***

               *****************************************************
               *                     SUCCESS                       *
               *           SCF CONVERGED AFTER  52 CYCLES          *
               *****************************************************

Setting up the final grid:

General Integration Accuracy     IntAcc      ...  4.670
Radial Grid Type                 RadialGrid  ... Gauss-Chebyshev
Angular Grid (max. acc.)         AngularGrid ... Lebedev-302
Angular grid pruning method      GridPruning ... 3 (G Style)
Weight generation scheme         WeightScheme... Becke
Basis function cutoff            BFCut       ...    1.0000e-11
Integration weight cutoff        WCut        ...    1.0000e-14
Grids for H and He will be reduced by one unit

# of grid points (after initial pruning)     ...  88708 (   0.0 sec)
# of grid points (after weights+screening)   ...  81061 (   0.2 sec)
nearest neighbour list constructed           ...    0.0 sec
Grid point re-assignment to atoms done       ...    0.0 sec
Grid point division into batches done        ...    0.4 sec
Reduced shell lists constructed in    0.7 sec

Total number of grid points                  ...    81061
Total number of batches                      ...     1276
Average number of points per batch           ...       63
Average number of grid points per atom       ...     4503
Average number of shells per batch           ...    67.04 (46.55%)
Average number of basis functions per batch  ...   170.37 (47.86%)
Average number of large shells per batch     ...    47.99 (71.59%)
Average number of large basis fcns per batch ...   121.98 (71.60%)
Maximum spatial batch extension              ...  16.42, 14.72, 22.08 au
Average spatial batch extension              ...   0.65,  0.61,  0.68 au

Final grid set up in    0.9 sec
Final integration                            ... done (   0.9 sec)
Change in XC energy                          ...     0.014916585
Integrated number of electrons               ...   137.997609197
Previous integrated no of electrons          ...   138.002207187

----------------
TOTAL SCF ENERGY
----------------

Total Energy       :        -3189.61049821 Eh          -86793.71416 eV

Components:
Nuclear Repulsion  :         1427.01518446 Eh           38831.05730 eV
Electronic Energy  :        -4616.62568267 Eh         -125624.77147 eV
One Electron Energy:        -7248.59578918 Eh         -197244.31913 eV
Two Electron Energy:         2631.97010651 Eh           71619.54767 eV
CPCM Dielectric    :           -0.00788602 Eh              -0.21459 eV

Virial components:
Potential Energy   :        -6384.26043121 Eh         -173724.55832 eV
Kinetic Energy     :         3194.64993301 Eh           86930.84416 eV
Virial Ratio       :            1.99842254


DFT components:
N(Alpha)           :       68.998804598670 electrons
N(Beta)            :       68.998804598670 electrons
N(Total)           :      137.997609197339 electrons
E(XC)              :     -155.535478322737 Eh       
DFET-embed. en.    :        0.000000000000 Eh       
CPCM Solvation Model Properties:
Surface-charge          :           -0.03431096
Charge-correction       :            0.00026064 Eh               0.00709 eV
Free-energy (cav+disp)  :            0.00458375 Eh               0.12473 eV
Corrected G(solv)       :        -3189.60565381 Eh          -86793.58234 eV

---------------
SCF CONVERGENCE
---------------

  Last Energy change         ...   -7.9517e-09  Tolerance :   1.0000e-08
  Last MAX-Density change    ...    2.3486e-05  Tolerance :   1.0000e-07
  Last RMS-Density change    ...    5.0314e-07  Tolerance :   5.0000e-09
  Last Orbital Gradient      ...    3.0860e-06  Tolerance :   1.0000e-05
  Last Orbital Rotation      ...    4.1595e-05  Tolerance :   1.0000e-05

             **** THE GBW FILE WAS UPDATED (BEDT-TTF.gbw) ****
             **** DENSITY FILE WAS UPDATED (BEDT-TTF.scfp) ****
             **** ENERGY FILE WAS UPDATED (BEDT-TTF.en.tmp) ****
             **** THE GBW FILE WAS UPDATED (BEDT-TTF.gbw) ****
             **** DENSITY FILE WAS UPDATED (BEDT-TTF.scfp) ****
----------------
ORBITAL ENERGIES
----------------

  NO   OCC          E(Eh)            E(eV) 
   0   2.0000     -88.988142     -2421.4905 
   1   2.0000     -88.984832     -2421.4004 
   2   2.0000     -88.982658     -2421.3412 
   3   2.0000     -88.980244     -2421.2755 
   4   2.0000     -88.970167     -2421.0013 
   5   2.0000     -88.970022     -2420.9974 
   6   2.0000     -88.966109     -2420.8909 
   7   2.0000     -88.965253     -2420.8676 
   8   2.0000      -8.103403      -220.5048 
   9   2.0000      -8.101879      -220.4633 
  10   2.0000      -8.094688      -220.2676 
  11   2.0000      -8.094114      -220.2520 
  12   2.0000      -8.083098      -219.9523 
  13   2.0000      -8.079848      -219.8638 
  14   2.0000      -8.077812      -219.8084 
  15   2.0000      -8.075355      -219.7416 
  16   2.0000      -6.062058      -164.9570 
  17   2.0000      -6.059993      -164.9008 
  18   2.0000      -6.048390      -164.5851 
  19   2.0000      -6.047511      -164.5611 
  20   2.0000      -6.043615      -164.4551 
  21   2.0000      -6.043375      -164.4486 
  22   2.0000      -6.041045      -164.3852 
  23   2.0000      -6.039767      -164.3504 
  24   2.0000      -6.038573      -164.3179 
  25   2.0000      -6.038289      -164.3102 
  26   2.0000      -6.037512      -164.2891 
  27   2.0000      -6.035530      -164.2351 
  28   2.0000      -6.034926      -164.2187 
  29   2.0000      -6.033961      -164.1924 
  30   2.0000      -6.032582      -164.1549 
  31   2.0000      -6.031926      -164.1371 
  32   2.0000      -6.029474      -164.0703 
  33   2.0000      -6.029196      -164.0628 
  34   2.0000      -6.027425      -164.0146 
  35   2.0000      -6.026235      -163.9822 
  36   2.0000      -6.025076      -163.9507 
  37   2.0000      -6.023132      -163.8978 
  38   2.0000      -6.021090      -163.8422 
  39   2.0000      -6.018806      -163.7800 
  40   2.0000      -1.240114       -33.7452 
  41   2.0000      -1.220531       -33.2123 
  42   2.0000      -0.985477       -26.8162 
  43   2.0000      -0.965442       -26.2710 
  44   2.0000      -0.854271       -23.2459 
  45   2.0000      -0.849651       -23.1202 
  46   2.0000      -0.826405       -22.4876 
  47   2.0000      -0.780150       -21.2290 
  48   2.0000      -0.752688       -20.4817 
  49   2.0000      -0.699873       -19.0445 
  50   2.0000      -0.685938       -18.6653 
  51   2.0000      -0.631439       -17.1823 
  52   2.0000      -0.615600       -16.7513 
  53   2.0000      -0.610327       -16.6078 
  54   2.0000      -0.515161       -14.0182 
  55   2.0000      -0.503262       -13.6944 
  56   2.0000      -0.448848       -12.2138 
  57   2.0000      -0.446569       -12.1518 
  58   2.0000      -0.442769       -12.0484 
  59   2.0000      -0.441362       -12.0101 
  60   2.0000      -0.407268       -11.0823 
  61   2.0000      -0.395369       -10.7585 
  62   2.0000      -0.384249       -10.4560 
  63   2.0000      -0.380356       -10.3500 
  64   2.0000      -0.378035       -10.2869 
  65   2.0000      -0.369150       -10.0451 
  66   2.0000      -0.296567        -8.0700 
  67   2.0000      -0.283535        -7.7154 
  68   2.0000      -0.225140        -6.1264 
  69   0.0000      -0.069898        -1.9020 
  70   0.0000      -0.054964        -1.4956 
  71   0.0000      -0.002497        -0.0680 
  72   0.0000       0.000657         0.0179 
  73   0.0000       0.007451         0.2027 
  74   0.0000       0.019843         0.5399 
  75   0.0000       0.127998         3.4830 
  76   0.0000       0.134047         3.6476 
  77   0.0000       0.137813         3.7501 
  78   0.0000       0.148249         4.0341 
  79   0.0000       0.160087         4.3562 
  80   0.0000       0.184784         5.0282 
  81   0.0000       0.194486         5.2922 
  82   0.0000       0.196998         5.3606 
  83   0.0000       0.210640         5.7318 
  84   0.0000       0.214559         5.8385 
  85   0.0000       0.219381         5.9697 
  86   0.0000       0.242515         6.5992 
  87   0.0000       0.252909         6.8820 
  88   0.0000       0.257981         7.0200 
  89   0.0000       0.269936         7.3453 
  90   0.0000       0.275418         7.4945 
  91   0.0000       0.289804         7.8860 
  92   0.0000       0.293794         7.9946 
  93   0.0000       0.303156         8.2493 
  94   0.0000       0.311884         8.4868 
  95   0.0000       0.319523         8.6947 
  96   0.0000       0.325027         8.8444 
  97   0.0000       0.331766         9.0278 
  98   0.0000       0.339990         9.2516 
  99   0.0000       0.341806         9.3010 
 100   0.0000       0.344288         9.3686 
 101   0.0000       0.346254         9.4220 
 102   0.0000       0.356708         9.7065 
 103   0.0000       0.357929         9.7397 
 104   0.0000       0.359076         9.7709 
 105   0.0000       0.361879         9.8472 
 106   0.0000       0.365183         9.9371 
 107   0.0000       0.382287        10.4026 
 108   0.0000       0.387540        10.5455 
 109   0.0000       0.392515        10.6809 
 110   0.0000       0.395605        10.7650 
 111   0.0000       0.404904        11.0180 
 112   0.0000       0.424881        11.5616 
 113   0.0000       0.438174        11.9233 
 114   0.0000       0.449230        12.2242 
 115   0.0000       0.461950        12.5703 
 116   0.0000       0.468896        12.7593 
 117   0.0000       0.476184        12.9576 
 118   0.0000       0.482303        13.1241 
 119   0.0000       0.492952        13.4139 
 120   0.0000       0.506542        13.7837 
 121   0.0000       0.512476        13.9452 
 122   0.0000       0.513928        13.9847 
 123   0.0000       0.515497        14.0274 
 124   0.0000       0.523232        14.2379 
 125   0.0000       0.526323        14.3220 
 126   0.0000       0.548108        14.9148 
 127   0.0000       0.571626        15.5547 
 128   0.0000       0.577726        15.7207 
 129   0.0000       0.584771        15.9124 
 130   0.0000       0.601315        16.3626 
 131   0.0000       0.607476        16.5303 
 132   0.0000       0.619142        16.8477 
 133   0.0000       0.639942        17.4137 
 134   0.0000       0.642270        17.4770 
 135   0.0000       0.658092        17.9076 
 136   0.0000       0.661332        17.9958 
 137   0.0000       0.663293        18.0491 
 138   0.0000       0.680589        18.5198 
 139   0.0000       0.686966        18.6933 
 140   0.0000       0.693745        18.8778 
 141   0.0000       0.695820        18.9342 
 142   0.0000       0.722364        19.6565 
 143   0.0000       0.728409        19.8210 
 144   0.0000       0.762573        20.7507 
 145   0.0000       0.801814        21.8185 
 146   0.0000       0.819175        22.2909 
 147   0.0000       0.855046        23.2670 
 148   0.0000       0.890526        24.2324 
 149   0.0000       0.896657        24.3993 
 150   0.0000       0.905634        24.6436 
 151   0.0000       0.915643        24.9159 
 152   0.0000       0.923905        25.1407 
 153   0.0000       0.932895        25.3854 
 154   0.0000       0.934913        25.4403 
 155   0.0000       1.004632        27.3374 
 156   0.0000       1.006653        27.3924 
 157   0.0000       1.032657        28.1000 
 158   0.0000       1.045714        28.4553 
 159   0.0000       1.079389        29.3717 
 160   0.0000       1.117881        30.4191 
 161   0.0000       1.132675        30.8217 
 162   0.0000       1.168675        31.8013 
 163   0.0000       1.186598        32.2890 
 164   0.0000       1.216934        33.1144 
 165   0.0000       1.229549        33.4577 
 166   0.0000       1.280237        34.8370 
 167   0.0000       1.285389        34.9772 
 168   0.0000       1.289360        35.0853 
 169   0.0000       1.302158        35.4335 
 170   0.0000       1.308319        35.6012 
 171   0.0000       1.340482        36.4764 
 172   0.0000       1.340912        36.4881 
 173   0.0000       1.364202        37.1218 
 174   0.0000       1.375977        37.4422 
 175   0.0000       1.380031        37.5525 
 176   0.0000       1.395887        37.9840 
 177   0.0000       1.416910        38.5561 
 178   0.0000       1.448561        39.4173 
 179   0.0000       1.481102        40.3028 
 180   0.0000       1.484966        40.4080 
 181   0.0000       1.501397        40.8551 
 182   0.0000       1.504481        40.9390 
 183   0.0000       1.512089        41.1460 
 184   0.0000       1.519156        41.3383 
 185   0.0000       1.531671        41.6789 
 186   0.0000       1.542478        41.9730 
 187   0.0000       1.549235        42.1568 
 188   0.0000       1.551679        42.2233 
 189   0.0000       1.554029        42.2873 
 190   0.0000       1.560120        42.4530 
 191   0.0000       1.561841        42.4999 
 192   0.0000       1.569663        42.7127 
 193   0.0000       1.572724        42.7960 
 194   0.0000       1.578176        42.9444 
 195   0.0000       1.586211        43.1630 
 196   0.0000       1.589510        43.2528 
 197   0.0000       1.593874        43.3715 
 198   0.0000       1.594772        43.3959 
 199   0.0000       1.600209        43.5439 
 200   0.0000       1.608273        43.7633 
 201   0.0000       1.611060        43.8392 
 202   0.0000       1.621321        44.1184 
 203   0.0000       1.626190        44.2509 
 204   0.0000       1.630677        44.3730 
 205   0.0000       1.656761        45.0827 
 206   0.0000       1.658470        45.1293 
 207   0.0000       1.667709        45.3807 
 208   0.0000       1.674379        45.5622 
 209   0.0000       1.675266        45.5863 
 210   0.0000       1.675840        45.6019 
 211   0.0000       1.677521        45.6477 
 212   0.0000       1.684773        45.8450 
 213   0.0000       1.685783        45.8725 
 214   0.0000       1.691502        46.0281 
 215   0.0000       1.702038        46.3148 
 216   0.0000       1.706064        46.4244 
 217   0.0000       1.710329        46.5404 
 218   0.0000       1.731563        47.1182 
 219   0.0000       1.734823        47.2069 
 220   0.0000       1.766865        48.0788 
 221   0.0000       1.774697        48.2920 
 222   0.0000       1.777994        48.3817 
 223   0.0000       1.793882        48.8140 
 224   0.0000       1.798587        48.9421 
 225   0.0000       1.807965        49.1972 
 226   0.0000       1.810278        49.2602 
 227   0.0000       1.831231        49.8303 
 228   0.0000       1.835100        49.9356 
 229   0.0000       1.837134        49.9909 
 230   0.0000       1.851982        50.3950 
 231   0.0000       1.861722        50.6600 
 232   0.0000       1.866188        50.7816 
 233   0.0000       1.890688        51.4482 
 234   0.0000       1.894739        51.5585 
 235   0.0000       1.898571        51.6627 
 236   0.0000       1.902561        51.7713 
 237   0.0000       1.912959        52.0542 
 238   0.0000       1.917286        52.1720 
 239   0.0000       1.930212        52.5237 
 240   0.0000       1.935746        52.6743 
 241   0.0000       1.941229        52.8235 
 242   0.0000       1.956466        53.2382 
 243   0.0000       1.961748        53.3819 
 244   0.0000       1.965177        53.4752 
 245   0.0000       1.967722        53.5444 
 246   0.0000       1.980344        53.8879 
 247   0.0000       1.985057        54.0161 
 248   0.0000       1.987484        54.0822 
 249   0.0000       2.014783        54.8250 
 250   0.0000       2.028547        55.1996 
 251   0.0000       2.032061        55.2952 
 252   0.0000       2.045790        55.6688 
 253   0.0000       2.048405        55.7399 
 254   0.0000       2.060405        56.0665 
 255   0.0000       2.067671        56.2642 
 256   0.0000       2.084457        56.7210 
 257   0.0000       2.087044        56.7913 
 258   0.0000       2.103870        57.2492 
 259   0.0000       2.123314        57.7783 
 260   0.0000       2.126963        57.8776 
 261   0.0000       2.169161        59.0259 
 262   0.0000       2.188853        59.5617 
 263   0.0000       2.194164        59.7062 
 264   0.0000       2.202061        59.9211 
 265   0.0000       2.213207        60.2244 
 266   0.0000       2.277901        61.9848 
 267   0.0000       2.296311        62.4858 
 268   0.0000       2.313740        62.9601 
 269   0.0000       2.371595        64.5344 
 270   0.0000       2.405153        65.4475 
 271   0.0000       2.406113        65.4737 
 272   0.0000       2.437579        66.3299 
 273   0.0000       2.450633        66.6851 
 274   0.0000       2.454200        66.7822 
 275   0.0000       2.479438        67.4689 
 276   0.0000       2.482543        67.5534 
 277   0.0000       2.499103        68.0041 
 278   0.0000       2.505625        68.1815 
 279   0.0000       2.515266        68.4439 
 280   0.0000       2.540726        69.1367 
 281   0.0000       2.546150        69.2843 
 282   0.0000       2.568382        69.8892 
 283   0.0000       2.617160        71.2166 
 284   0.0000       2.657934        72.3261 
 285   0.0000       2.702625        73.5422 
 286   0.0000       2.718895        73.9849 
 287   0.0000       2.721550        74.0572 
 288   0.0000       2.732334        74.3506 
 289   0.0000       2.744114        74.6711 
 290   0.0000       2.759036        75.0772 
 291   0.0000       2.814535        76.5874 
 292   0.0000       2.830202        77.0137 
 293   0.0000       2.850080        77.5546 
 294   0.0000       2.864200        77.9389 
 295   0.0000       2.893999        78.7497 
 296   0.0000       2.898383        78.8690 
 297   0.0000       2.918233        79.4092 
 298   0.0000       2.925285        79.6011 
 299   0.0000       2.937486        79.9330 
 300   0.0000       2.955855        80.4329 
 301   0.0000       2.969575        80.8063 
 302   0.0000       2.994679        81.4894 
 303   0.0000       3.039788        82.7168 
 304   0.0000       3.041864        82.7733 
 305   0.0000       3.075422        83.6865 
 306   0.0000       3.084811        83.9420 
 307   0.0000       3.172055        86.3160 
 308   0.0000       3.176547        86.4382 
 309   0.0000       3.208061        87.2958 
 310   0.0000       3.231091        87.9225 
 311   0.0000       3.233733        87.9944 
 312   0.0000       3.251619        88.4811 
 313   0.0000       3.419985        93.0625 
 314   0.0000       3.457849        94.0929 
 315   0.0000       3.573597        97.2425 
 316   0.0000       3.586917        97.6050 
 317   0.0000       3.662143        99.6520 
 318   0.0000       3.726518       101.4037 
 319   0.0000       3.762693       102.3881 
 320   0.0000       3.811609       103.7192 
 321   0.0000       4.611037       125.4727 
 322   0.0000       4.612557       125.5141 
 323   0.0000       5.146652       140.0475 
 324   0.0000       8.904532       242.3046 
 325   0.0000       8.912552       242.5229 
 326   0.0000       8.923921       242.8322 
 327   0.0000       8.929854       242.9937 
 328   0.0000       8.953946       243.6492 
 329   0.0000       8.956431       243.7169 
 330   0.0000       9.005069       245.0404 
 331   0.0000       9.030534       245.7333 
 332   0.0000       9.059411       246.5191 
 333   0.0000       9.088781       247.3183 
 334   0.0000       9.098882       247.5932 
 335   0.0000       9.135234       248.5823 
 336   0.0000       9.175067       249.6663 
 337   0.0000       9.224198       251.0032 
 338   0.0000       9.225537       251.0396 
 339   0.0000       9.264466       252.0989 
 340   0.0000       9.371401       255.0088 
 341   0.0000       9.397961       255.7315 
 342   0.0000       9.451936       257.2002 
 343   0.0000       9.486558       258.1424 
 344   0.0000       9.496456       258.4117 
 345   0.0000       9.600800       261.2511 
 346   0.0000       9.980357       271.5793 
 347   0.0000      10.012154       272.4446 
 348   0.0000      18.589917       505.8574 
 349   0.0000      18.608562       506.3647 
 350   0.0000      19.023163       517.6466 
 351   0.0000      19.045434       518.2526 
 352   0.0000      19.048416       518.3337 
 353   0.0000      19.292348       524.9715 
 354   0.0000      22.205771       604.2497 
 355   0.0000      22.432186       610.4108 

                    ********************************
                    * MULLIKEN POPULATION ANALYSIS *
                    ********************************

-----------------------
MULLIKEN ATOMIC CHARGES
-----------------------
   0 S :   -0.336404
   1 H :    0.265118
   2 H :    0.132682
   3 S :   -0.316107
   4 H :    0.240305
   5 H :    0.136855
   6 S :   -0.086933
   7 S :   -0.091817
   8 H :    0.041713
   9 H :    0.046839
  10 S :   -0.099977
  11 S :   -0.106137
[...]
    93. A(H   9,S  11,S  15)          109.70 -0.000028    0.41    110.11   
    94. A(S  11,H  12,H  13)           54.35  0.000018   -0.13     54.21   
    95. A(S  10,H  12,H  13)           83.89  0.000010   -0.40     83.49   
    96. A(S  10,H  12,S  11)           29.54 -0.000008   -0.27     29.27   
    97. A(H  13,H  12,S  14)          149.41  0.000146   -0.55    148.86   
    98. A(S  11,H  12,S  14)          156.24 -0.000164    0.68    156.92   
    99. A(S  10,H  12,S  14)          126.70 -0.000156    0.95    127.65   
   100. A(S  11,H  13,H  12)           84.76  0.000006   -0.21     84.55   
   101. A(S  10,H  13,H  12)           54.92  0.000015    0.03     54.95   
   102. A(S  10,H  13,S  11)           29.84 -0.000010   -0.23     29.60   
   103. A(H  12,H  13,S  15)          146.98  0.000080   -0.74    146.24   
   104. A(S  11,H  13,S  15)          128.26 -0.000086    0.95    129.21   
   105. A(S  10,H  13,S  15)          158.09 -0.000096    0.71    158.81   
   106. A(H  12,S  14,H  16)           93.57  0.000059   -0.06     93.51   
   107. A(S  10,S  14,H  16)          131.17  0.000172   -0.71    130.47   
   108. A(S  10,S  14,H  12)           37.90  0.000112   -0.61     37.29   
   109. A(H  13,S  15,H  17)           93.66  0.000043   -0.02     93.64   
   110. A(S  11,S  15,H  17)          129.80  0.000109   -0.73    129.07   
   111. A(S  11,S  15,H  13)           36.73  0.000064   -0.63     36.11   
   112. D(S   6,H   1,S   0,H   2)    169.99  0.000005   -0.22    169.77   
   113. D(H   4,H   1,S   0,H   2)     -5.36  0.000016    0.08     -5.28   
   114. D(H   4,H   1,S   0,S   6)   -175.35  0.000011    0.30   -175.05   
   115. D(S   7,H   1,S   0,H   2)    167.59  0.000025   -0.41    167.19   
   116. D(S   7,H   1,S   0,S   6)     -2.39  0.000021   -0.19     -2.58   
   117. D(S   6,H   4,S   3,S   7)      4.06 -0.000044    0.48      4.54   
   118. D(S   3,H   4,H   1,S   7)   -176.71  0.000028    0.11   -176.61   
   119. D(H   1,H   4,S   3,H   5)      6.07 -0.000011   -0.20      5.86   
   120. D(S   6,H   4,S   3,H   5)   -165.61 -0.000032    0.49   -165.12   
   121. D(S   3,H   4,H   1,S   0)     -0.25  0.000013   -0.07     -0.32   
   122. D(S   6,H   4,H   1,S   7)     -0.23 -0.000001   -0.03     -0.26   
   123. D(S   7,H   4,H   1,S   6)      0.23  0.000001    0.03      0.26   
   124. D(S   7,H   4,S   3,H   5)   -169.67  0.000012    0.01   -169.66   
   125. D(H   1,H   4,S   3,S   7)    175.73 -0.000023   -0.21    175.52   
   126. D(S   3,H   4,H   1,S   6)   -176.48  0.000028    0.14   -176.34   
   127. D(S   6,H   4,H   1,S   0)    176.23 -0.000015   -0.21    176.03   
   128. D(S   7,H   4,H   1,S   0)    176.47 -0.000014   -0.18    176.29   
   129. D(H   8,S   6,S   0,H   1)     81.39  0.000011    0.54     81.93   
   130. D(S   7,S   6,H   1,S   0)   -178.03 -0.000004    0.13   -177.89   
   131. D(S   0,S   6,H   1,H   4)    177.65  0.000003   -0.18    177.46   
   132. D(H   8,S   6,H   1,S   0)   -103.41  0.000009    0.45   -102.96   
   133. D(S   7,S   6,H   1,H   4)     -0.38 -0.000001   -0.05     -0.43   
   134. D(S   7,S   6,S   0,H   2)    -11.19 -0.000017   -0.03    -11.22   
   135. D(H   4,S   6,H   1,S   7)      0.38  0.000001    0.05      0.43   
   136. D(S   0,S   6,H   1,S   7)    178.03  0.000004   -0.13    177.89   
   137. D(H   4,S   6,H   1,S   0)   -177.65 -0.000003    0.18   -177.46   
   138. D(H   1,S   6,H   4,S   7)   -179.54  0.000001    0.06   -179.47   
   139. D(H   4,S   6,S   0,H   1)      1.86 -0.000003    0.16      2.01   
   140. D(H   8,S   6,H   4,S   7)     68.27  0.000028   -0.20     68.07   
   141. D(S   0,S   6,H   4,H   1)     -0.75 -0.000001   -0.04     -0.80   
   142. D(H   8,S   6,H   1,S   7)     74.61  0.000013    0.32     74.93   
   143. D(H   8,S   6,S   0,H   2)     68.10 -0.000002    0.37     68.47   
   144. D(H   8,S   6,H   4,H   1)   -112.19  0.000027   -0.27   -112.46   
   145. D(S   0,S   6,H   4,S   3)    173.46  0.000045   -0.67    172.79   
   146. D(H   8,S   6,H   4,S   3)     62.02  0.000073   -0.89     61.13   
   147. D(S   7,S   6,S   0,H   1)      2.11 -0.000004    0.14      2.25   
   148. D(S   7,S   6,H   4,S   3)     -6.26  0.000045   -0.69     -6.94   
   149. D(S   7,S   6,H   4,H   1)    179.54 -0.000001   -0.06    179.47   
   150. D(H   1,S   6,S   0,H   2)    -13.30 -0.000013   -0.17    -13.47   
   151. D(H   8,S   6,H   1,H   4)     74.23  0.000012    0.27     74.50   
   152. D(H   4,S   6,S   0,H   2)    -11.44 -0.000017   -0.02    -11.46   
   153. D(H   1,S   6,H   4,S   3)    174.21  0.000046   -0.62    173.58   
   154. D(S   0,S   6,H   4,S   7)    179.71  0.000001    0.02    179.73   
   155. D(S   6,S   7,S   3,H   4)     -2.99 -0.000003   -0.25     -3.24   
   156. D(H   8,S   7,S   3,H   5)    -68.66  0.000018   -0.76    -69.42   
   157. D(S   6,S   7,S   3,H   5)     10.20  0.000034   -0.40      9.80   
   158. D(H   1,S   7,H   4,S   6)      0.38  0.000001    0.05      0.43   
   159. D(H   4,S   7,S   3,H   5)     13.19  0.000037   -0.15     13.04   
   160. D(H   1,S   7,H   4,S   3)    177.56 -0.000001   -0.18    177.37   
   161. D(H   1,S   7,S   3,H   4)     -1.94  0.000001   -0.16     -2.10   
   162. D(H   8,S   7,H   1,S   6)    -68.26 -0.000025    0.21    -68.05   
   163. D(H   8,S   7,H   1,H   4)    111.28 -0.000026    0.15    111.42   
   164. D(S   3,S   7,H   4,H   1)   -177.56  0.000001    0.18   -177.37   
   165. D(H   1,S   7,S   3,H   5)     11.25  0.000039   -0.31     10.94   
   166. D(H   8,S   7,H   1,S   0)    -64.36 -0.000049    0.51    -63.84   
   167. D(S   6,S   7,H   1,H   4)    179.53 -0.000001   -0.06    179.47   
   168. D(S   6,S   7,H   1,S   0)      3.90 -0.000025    0.30      4.20   
   169. D(H   8,S   7,S   3,H   4)    -81.85 -0.000019   -0.61    -82.46   
   170. D(H   4,S   7,H   1,S   6)   -179.53  0.000001    0.06   -179.47   
   171. D(S   3,S   7,H   1,S   6)   -178.78  0.000004    0.10   -178.68   
   172. D(S   3,S   7,H   1,S   0)   -174.88 -0.000020    0.40   -174.48   
   173. D(S   3,S   7,H   1,H   4)      0.75  0.000003    0.04      0.79   
   174. D(H   4,S   7,S   6,H   8)   -104.58  0.000030   -0.63   -105.20   
   175. D(H   8,S   7,S   6,H   1)    104.88 -0.000029    0.67    105.55   
   176. D(H   8,S   7,S   6,S   0)    104.32 -0.000029    0.64    104.96   
   177. D(H   4,S   7,H   1,S   0)   -175.63 -0.000023    0.36   -175.27   
   178. D(H   4,S   7,S   6,H   1)      0.31  0.000001    0.04      0.35   
   179. D(H   4,S   7,S   6,S   0)     -0.26  0.000001    0.02     -0.24   
   180. D(S   3,S   7,S   6,H   8)   -103.82  0.000034   -0.58   -104.40   
   181. D(S   3,S   7,S   6,H   4)      0.76  0.000004    0.04      0.80   
   182. D(S   3,S   7,S   6,H   1)      1.07  0.000005    0.09      1.15   
   183. D(S   3,S   7,S   6,S   0)      0.50  0.000004    0.06      0.56   
   184. D(H   1,S   7,S   6,H   8)   -104.88  0.000029   -0.67   -105.55   
   185. D(H   8,S   7,H   4,S   6)    -74.66 -0.000007   -0.33    -75.00   
   186. D(H   1,S   7,S   6,S   0)     -0.57 -0.000000   -0.03     -0.59   
   187. D(H   8,S   7,H   4,S   3)    102.51 -0.000009   -0.57    101.94   
   188. D(H   8,S   7,H   4,H   1)    -75.04 -0.000008   -0.38    -75.43   
   189. D(H   8,S   7,S   6,H   4)    104.58 -0.000030    0.63    105.20   
   190. D(S   6,S   7,H   4,S   3)    177.17 -0.000002   -0.24    176.94   
   191. D(S   6,S   7,H   4,H   1)     -0.38 -0.000001   -0.05     -0.43   
   192. D(S   3,S   7,H   4,S   6)   -177.17  0.000002    0.24   -176.94   
   193. D(H   1,S   7,S   6,H   4)     -0.31 -0.000001   -0.04     -0.35   
   194. D(H   9,H   8,S   7,S   6)    179.15 -0.000024   -0.16    178.99   
   195. D(H   9,H   8,S   7,S   3)    -74.65  0.000039   -0.34    -74.99   
   196. D(H   9,H   8,S   7,H   1)   -129.01  0.000004   -0.39   -129.40   
   197. D(S   6,H   8,S   7,H   4)     91.16  0.000004    0.19     91.35   
   198. D(S   6,H   8,S   7,H   1)     51.84  0.000028   -0.23     51.61   
   199. D(H   9,H   8,S   6,S   7)   -179.09  0.000013    0.18   -178.91   
   200. D(H   9,H   8,S   6,H   4)    128.64 -0.000025    0.41    129.05   
   201. D(S   6,H   8,S   7,S   3)    106.20  0.000063   -0.19    106.02   
   202. D(H   9,H   8,S   6,H   1)     89.23 -0.000003   -0.01     89.21   
   203. D(H   9,H   8,S   6,S   0)     73.28 -0.000033    0.24     73.53   
   204. D(S   7,H   8,S   6,H   1)    -91.68 -0.000016   -0.20    -91.88   
   205. D(H   9,H   8,S   7,H   4)    -89.69 -0.000020    0.03    -89.66   
   206. D(S   7,H   8,S   6,S   0)   -107.62 -0.000046    0.06   -107.56   
   207. D(S   7,H   8,S   6,H   4)    -52.27 -0.000038    0.23    -52.04   
   208. D(S  11,H   9,H   8,S   7)    -10.62  0.000058    0.28    -10.34   
   209. D(S  11,H   9,H   8,S   6)    167.70  0.000022   -0.05    167.64   
   210. D(S  10,H   9,H   8,S   7)    163.57  0.000033   -0.10    163.47   
   211. D(S  10,H   9,H   8,S   6)    -18.12 -0.000003   -0.43    -18.55   
   212. D(S  14,S  10,H   9,H   8)     75.74 -0.000054    0.37     76.11   
   213. D(H  13,S  10,H   9,S  11)    -52.06 -0.000026    0.25    -51.81   
   214. D(H  13,S  10,H   9,H   8)    130.85 -0.000033    0.46    131.30   
   215. D(H  12,S  10,H   9,S  11)    -91.31 -0.000005   -0.12    -91.42   
   216. D(H  12,S  10,H   9,H   8)     91.60 -0.000012    0.09     91.69   
   217. D(S  14,S  10,H   9,S  11)   -107.16 -0.000047    0.16   -107.01   
   218. D(S  11,S  10,H   9,H   8)   -177.09 -0.000007    0.21   -176.88   
   219. D(S  15,S  11,S  10,H  13)      0.17 -0.000000    0.04      0.22   
   220. D(S  15,S  11,S  10,H  12)      0.65 -0.000005    0.20      0.84   
   221. D(S  15,S  11,S  10,H   9)   -105.62  0.000036   -0.56   -106.18   
   222. D(H  13,S  11,S  10,H  12)      0.47 -0.000005    0.15      0.63   
   223. D(H  13,S  11,S  10,H   9)   -105.79  0.000036   -0.60   -106.40   
   224. D(H  12,S  11,S  10,S  14)      0.07 -0.000001    0.04      0.11   
   225. D(H  12,S  11,S  10,H  13)     -0.47  0.000005   -0.15     -0.63   
   226. D(H  12,S  11,S  10,H   9)   -106.26  0.000041   -0.76   -107.02   
   227. D(H   9,S  11,S  10,S  14)    106.34 -0.000042    0.80    107.13   
   228. D(H   9,S  11,S  10,H  13)    105.79 -0.000036    0.60    106.40   
   229. D(H   9,S  11,S  10,H  12)    106.26 -0.000041    0.76    107.02   
   230. D(S  15,S  11,H   9,S  10)    106.27  0.000021   -0.00    106.27   
   231. D(S  15,S  11,H   9,H   8)    -76.88 -0.000012   -0.18    -77.06   
   232. D(H  13,S  11,H   9,S  10)     90.82  0.000002    0.24     91.06   
   233. D(H  13,S  11,S  10,S  14)      0.54 -0.000006    0.19      0.74   
   234. D(H  13,S  11,H   9,H   8)    -92.33 -0.000031    0.06    -92.27   
   235. D(H  12,S  11,H   9,S  10)     51.37  0.000029   -0.26     51.11   
   236. D(H  12,S  11,H   9,H   8)   -131.78 -0.000004   -0.43   -132.22   
   237. D(S  15,S  11,S  10,S  14)      0.72 -0.000006    0.24      0.96   
   238. D(S  10,S  11,H   9,H   8)    176.85 -0.000033   -0.18    176.67   
   239. D(S  14,H  12,S  11,S  15)   -179.76  0.000005   -0.05   -179.81   
   240. D(S  14,H  12,S  11,H  13)   -179.78  0.000004   -0.04   -179.82   
   241. D(S  14,H  12,S  11,S  10)     -0.50  0.000011   -0.27     -0.77   
   242. D(H  13,H  12,S  11,S  15)      0.01  0.000001   -0.01      0.00   
   243. D(H  13,H  12,S  11,S  10)    179.28  0.000007   -0.23    179.05   
   244. D(H  13,H  12,S  11,H   9)    111.54 -0.000013   -0.06    111.48   
   245. D(S  10,H  12,S  11,S  15)   -179.27 -0.000006    0.22   -179.04   
   246. D(S  10,H  12,S  11,H  13)   -179.28 -0.000007    0.23   -179.05   
   247. D(S  10,H  12,S  11,H   9)    -67.74 -0.000020    0.17    -67.57   
   248. D(S  14,H  12,S  10,H  13)   -179.66 -0.000001    0.05   -179.61   
   249. D(S  14,H  12,S  10,S  11)    179.75  0.000004   -0.14    179.61   
   250. D(S  14,H  12,S  10,H   9)   -106.00  0.000013    0.04   -105.97   
   251. D(H  13,H  12,S  10,S  14)    179.66  0.000001   -0.05    179.61   
   252. D(H  13,H  12,S  10,S  11)     -0.59  0.000006   -0.19     -0.78   
   253. D(S  14,H  12,S  11,H   9)    -68.24 -0.000009   -0.10    -68.34   
   254. D(H  13,H  12,S  10,H   9)     73.66  0.000014   -0.02     73.64   
   255. D(S  11,H  12,S  10,S  14)   -179.75 -0.000004    0.14   -179.61   
   256. D(S  11,H  12,S  10,H  13)      0.59 -0.000006    0.19      0.78   
   257. D(S  11,H  12,S  10,H   9)     74.25  0.000009    0.17     74.42   
   258. D(S  15,H  13,H  12,S  14)     -0.11  0.000000   -0.00     -0.11   
   259. D(S  15,H  13,H  12,S  10)   -179.58  0.000002    0.07   -179.51   
   260. D(S  11,H  13,H  12,S  14)    179.82 -0.000005    0.04    179.87   
   261. D(S  11,H  13,H  12,S  10)      0.36 -0.000004    0.12      0.47   
   262. D(S  10,H  13,H  12,S  11)     -0.36  0.000004   -0.12     -0.47   
   263. D(S  15,H  13,S  11,H  12)    179.96 -0.000004    0.03    179.98   
   264. D(S  15,H  13,S  11,S  10)    179.37  0.000002   -0.16    179.21   
   265. D(S  15,H  13,S  11,H   9)    104.31  0.000012   -0.63    103.67   
   266. D(H  12,H  13,S  11,S  15)   -179.96  0.000004   -0.03   -179.98   
   267. D(H  12,H  13,S  11,S  10)     -0.59  0.000006   -0.19     -0.78   
   268. D(H  12,H  13,S  11,H   9)    -75.65  0.000015   -0.66    -76.31   
   269. D(S  10,H  13,S  11,S  15)   -179.37 -0.000002    0.16   -179.21   
   270. D(S  10,H  13,S  11,H  12)      0.59 -0.000006    0.19      0.78   
   271. D(S  10,H  13,S  11,H   9)    -75.06  0.000009   -0.47    -75.53   
   272. D(S  15,H  13,S  10,S  14)    179.28  0.000001   -0.14    179.14   
   273. D(S  15,H  13,S  10,H  12)    179.39  0.000001   -0.13    179.26   
   274. D(S  15,H  13,S  10,S  11)     -1.33  0.000008   -0.36     -1.69   
   275. D(S  15,H  13,S  10,H   9)     65.90  0.000040   -0.66     65.24   
   276. D(H  12,H  13,S  10,S  14)     -0.11  0.000000   -0.02     -0.12   
   277. D(S  10,H  13,H  12,S  14)    179.47 -0.000001   -0.07    179.40   
   278. D(H  12,H  13,S  10,S  11)    179.29  0.000007   -0.23    179.06   
   279. D(H  12,H  13,S  10,H   9)   -113.49  0.000039   -0.54   -114.02   
   280. D(S  11,H  13,S  10,S  14)   -179.39 -0.000007    0.22   -179.18   
   281. D(S  15,H  13,H  12,S  11)   -179.94  0.000005   -0.04   -179.98   
   282. D(S  11,H  13,S  10,H  12)   -179.29 -0.000007    0.23   -179.06   
   283. D(S  11,H  13,S  10,H   9)     67.23  0.000032   -0.31     66.92   
   284. D(H  16,S  14,H  12,H  13)     -5.85  0.000020   -0.37     -6.22   
   285. D(H  16,S  14,H  12,S  10)    173.49  0.000020   -0.47    173.03   
   286. D(S  10,S  14,H  12,H  13)   -179.34  0.000000    0.10   -179.24   
   287. D(S  10,S  14,H  12,S  11)      0.31 -0.000007    0.17      0.48   
   288. D(H  16,S  14,S  10,H  13)     -8.38  0.000003   -0.49     -8.87   
   289. D(H  16,S  14,S  10,H  12)     -8.64  0.000004   -0.54     -9.18   
   290. D(H  16,S  14,S  10,S  11)     -8.91  0.000009   -0.68     -9.59   
   291. D(H  16,S  14,S  10,H   9)     70.57  0.000021   -0.39     70.19   
   292. D(H  12,S  14,S  10,H  13)      0.27 -0.000001    0.04      0.31   
   293. D(H  16,S  14,H  12,S  11)    173.80  0.000012   -0.30    173.50   
   294. D(H  12,S  14,S  10,S  11)     -0.27  0.000005   -0.14     -0.41   
   295. D(H  12,S  14,S  10,H   9)     79.22  0.000017    0.15     79.37   
   296. D(H  17,S  15,H  13,H  12)      9.27 -0.000035    0.86     10.13   
   297. D(H  17,S  15,H  13,S  11)   -170.65 -0.000028    0.81   -169.84   
   298. D(H  17,S  15,H  13,S  10)   -169.81 -0.000035    1.04   -168.77   
   299. D(S  11,S  15,H  13,H  12)    179.92 -0.000007    0.05    179.97   
   300. D(S  11,S  15,H  13,S  10)      0.84 -0.000007    0.23      1.07   
   301. D(H  17,S  15,S  11,H  13)     12.18 -0.000018    0.94     13.12   
   302. D(H  17,S  15,S  11,H  12)     12.15 -0.000021    0.96     13.11   
   303. D(H  17,S  15,S  11,S  10)     11.51 -0.000015    0.77     12.28   
   304. D(H  17,S  15,S  11,H   9)    -68.35 -0.000004    0.25    -68.10   
   305. D(H  13,S  15,S  11,H  12)     -0.04 -0.000003    0.02     -0.01   
   306. D(H  13,S  15,S  11,S  10)     -0.67  0.000002   -0.17     -0.84   
   307. D(H  13,S  15,S  11,H   9)    -80.53  0.000014   -0.69    -81.23   
    ----------------------------------------------------------------------------




    ----------------------------------------------------------------------------
                                  WARNING !!!
       The optimization did not converge but reached the maximum number of
       optimization cycles.
       Please check your results very carefully.
    ----------------------------------------------------------------------------



                            ***************************************
                            *     ORCA property calculations      *
                            ***************************************

                                    ---------------------
                                    Active property flags
                                    ---------------------
   (+) Dipole Moment


------------------------------------------------------------------------------
                       ORCA ELECTRIC PROPERTIES CALCULATION
------------------------------------------------------------------------------

Dipole Moment Calculation                       ... on
Quadrupole Moment Calculation                   ... off
Polarizability Calculation                      ... off
GBWName                                         ... BEDT-TTF.gbw
Electron density file                           ... BEDT-TTF.scfp
The origin for moment calculation is the CENTER OF MASS  = ( 2.322467,  2.466273 -0.302555)

-------------
DIPOLE MOMENT
-------------
                                X             Y             Z
Electronic contribution:     -0.16797      -1.55012       0.20424
Nuclear contribution   :      0.17971       1.61790      -0.18781
                        -----------------------------------------
Total Dipole Moment    :      0.01174       0.06779       0.01643
                        -----------------------------------------
Magnitude (a.u.)       :      0.07073
Magnitude (Debye)      :      0.17978



--------------------
Rotational spectrum 
--------------------
 
Rotational constants in cm-1:     0.012068     0.002594     0.002470 
Rotational constants in MHz :   361.781891    77.755313    74.038240 

 Dipole components along the rotational axes: 
x,y,z [a.u.] :    -0.009455    -0.066364    -0.022568 
x,y,z [Debye]:    -0.024032    -0.168684    -0.057363 

 
--------------------------------------------------------------------------
[[43803,1],0]: A high-performance Open MPI point-to-point messaging module
was unable to find any relevant network interfaces:

Module: OpenFabrics (openib)
  Host: compute-0-5

Another transport will be used instead, although this may result in
lower performance.

NOTE: You can disable this warning by setting the MCA parameter
btl_base_warn_component_unused to 0.
--------------------------------------------------------------------------
[compute-0-5.local:41079] 3 more processes have sent help message help-mpi-btl-base.txt / btl:no-nics
[compute-0-5.local:41079] Set MCA parameter "orte_base_help_aggregate" to 0 to see all help / error messages

Timings for individual modules:

Sum of individual times         ...    17795.793 sec (= 296.597 min)
GTO integral calculation        ...       38.470 sec (=   0.641 min)   0.2 %
SCF iterations                  ...    12792.466 sec (= 213.208 min)  71.9 %
SCF Gradient evaluation         ...     4945.527 sec (=  82.425 min)  27.8 %
Geometry relaxation             ...       19.330 sec (=   0.322 min)   0.1 %
                             ****ORCA TERMINATED NORMALLY****
TOTAL RUN TIME: 0 days 4 hours 56 minutes 52 seconds 236 msec
