Warning: no access to tty (Bad file descriptor).
Thus no job control in this shell.

                                 *****************
                                 * O   R   C   A *
                                 *****************

           --- An Ab Initio, DFT and Semiempirical electronic structure package ---

                  #######################################################
                  #                        -***-                        #
                  #          Department of theory and spectroscopy      #
                  #               Directorship: Frank Neese             #
                  #        Max Planck Institute fuer Kohlenforschung    #
                  #                Kaiser Wilhelm Platz 1               #
                  #                 D-45470 Muelheim/Ruhr               #
                  #                      Germany                        #
                  #                                                     #
                  #                  All rights reserved                #
                  #                        -***-                        #
                  #######################################################


                         Program Version 4.2.1 -  RELEASE  -


 With contributions from (in alphabetic order):
   Daniel Aravena         : Magnetic Suceptibility
   Michael Atanasov       : Ab Initio Ligand Field Theory (pilot matlab implementation)
   Alexander A. Auer      : GIAO ZORA, VPT2
   Ute Becker             : Parallelization
   Giovanni Bistoni       : ED, misc. LED, open-shell LED, HFLD
   Martin Brehm           : Molecular dynamics
   Dmytro Bykov           : SCF Hessian
   Vijay G. Chilkuri      : MRCI spin determinant printing, contributions to CSF-ICE
   Dipayan Datta          : RHF DLPNO-CCSD density
   Achintya Kumar Dutta   : EOM-CC, STEOM-CC
   Dmitry Ganyushin       : Spin-Orbit,Spin-Spin,Magnetic field MRCI
   Miquel Garcia          : C-PCM Hessian, Gaussian charge scheme
   Yang Guo               : DLPNO-NEVPT2, CIM, IAO-localization
   Andreas Hansen         : Spin unrestricted coupled pair/coupled cluster methods
   Benjamin Helmich-Paris : CASSCF linear response (MC-RPA)
   Lee Huntington         : MR-EOM, pCC
   Robert Izsak           : Overlap fitted RIJCOSX, COSX-SCS-MP3, EOM
   Christian Kollmar      : KDIIS, OOCD, Brueckner-CCSD(T), CCSD density
   Simone Kossmann        : Meta GGA functionals, TD-DFT gradient, OOMP2, MP2 Hessian
   Martin Krupicka        : AUTO-CI
   Lucas Lang             : DCDCAS
   Dagmar Lenk            : GEPOL surface, SMD
   Dimitrios Liakos       : Extrapolation schemes; Compound Job, initial MDCI parallelization
   Dimitrios Manganas     : Further ROCIS development; embedding schemes
   Dimitrios Pantazis     : SARC Basis sets
   Taras Petrenko         : DFT Hessian,TD-DFT gradient, ASA, ECA, R-Raman, ABS, FL, XAS/XES, NRVS
   Peter Pinski           : DLPNO-MP2, DLPNO-MP2 Gradient
   Christoph Reimann      : Effective Core Potentials
   Marius Retegan         : Local ZFS, SOC
   Christoph Riplinger    : Optimizer, TS searches, QM/MM, DLPNO-CCSD(T), (RO)-DLPNO pert. Triples
   Tobias Risthaus        : Range-separated hybrids, TD-DFT gradient, RPA, STAB
   Michael Roemelt        : Original ROCIS implementation
   Masaaki Saitow         : Open-shell DLPNO-CCSD energy and density
   Barbara Sandhoefer     : DKH picture change effects
   Avijit Sen             : IP-ROCIS
   Kantharuban Sivalingam : CASSCF convergence, NEVPT2, FIC-MRCI
   Bernardo de Souza      : ESD, SOC TD-DFT
   Georgi Stoychev        : AutoAux, RI-MP2 NMR
   Willem Van den Heuvel  : Paramagnetic NMR
   Boris Wezisla          : Elementary symmetry handling
   Frank Wennmohs         : Technical directorship


 We gratefully acknowledge several colleagues who have allowed us to
 interface, adapt or use parts of their codes:
   Stefan Grimme, W. Hujo, H. Kruse,             : VdW corrections, initial TS optimization,
                  C. Bannwarth                     DFT functionals, gCP, sTDA/sTD-DF
   Ed Valeev, F. Pavosevic, A. Kumar             : LibInt (2-el integral package), F12 methods
   Garnet Chan, S. Sharma, J. Yang, R. Olivares  : DMRG
   Ulf Ekstrom                                   : XCFun DFT Library
   Mihaly Kallay                                 : mrcc  (arbitrary order and MRCC methods)
   Andreas Klamt, Michael Diedenhofen            : otool_cosmo (COSMO solvation model)
   Jiri Pittner, Ondrej Demel                    : Mk-CCSD
   Frank Weinhold                                : gennbo (NPA and NBO analysis)
   Christopher J. Cramer and Donald G. Truhlar   : smd solvation model
   Lars Goerigk                                  : TD-DFT with DH, B97 family of functionals
   V. Asgeirsson, H. Jonsson                     : NEB implementation
   FAccTs GmbH                                   : IRC, NEB, NEB-TS, Multilevel, MM, QM/MM, CI optimization
   S Lehtola, MJT Oliveira, MAL Marques          : LibXC Library


 Your calculation uses the libint2 library for the computation of 2-el integrals
 For citations please refer to: http://libint.valeyev.net

 Your ORCA version has been built with support for libXC version: 4.2.3
 For citations please refer to: https://tddft.org/programs/libxc/

 This ORCA versions uses:
   CBLAS   interface :  Fast vector & matrix operations
   LAPACKE interface :  Fast linear algebra routines
   SCALAPACK package :  Parallel linear algebra routines


Your calculation utilizes the atom-pairwise dispersion correction
with the zero-damping scheme (D30)
Cite in your paper:
S.Grimme, J.Antony, S.Ehrlich and H.Krieg, J.Chem.Phys., 132, (2010), 154104 
   

XCFun DFT library Copyright 2009-2010 Ulf Ekstrom and contributors.
See http://admol.org/xcfun for more information. This is free soft-
ware; see the source code for copying conditions. There is ABSOLUTELY
NO WARRANTY; not even for MERCHANTABILITY or FITNESS FOR A PARTICULAR
PURPOSE. For details see the documentation. Scientific users of this 
library should cite U. Ekstrom, L. Visscher, R. Bast, A. J. Thorvald-
sen and K. Ruud; J.Chem.Theor.Comp. 2010, DOI: 10.1021/ct100117s
XCFun Version 0.99 
----- Orbital basis set information -----
Your calculation utilizes the basis: def2-TZVP
   F. Weigend and R. Ahlrichs, Phys. Chem. Chem. Phys. 7, 3297 (2005).

----- AuxJ basis set information -----
Your calculation utilizes the auxiliary basis: def2/J
   F. Weigend, Phys. Chem. Chem. Phys. 8, 1057 (2006).

================================================================================
                                        WARNINGS
                       Please study these warnings very carefully!
================================================================================


WARNING: Geometry Optimization
  ===> : Switching off AutoStart
         For restart on a previous wavefunction, please use MOREAD

INFO   : the flag for use of LIBINT has been found!

================================================================================
                                       INPUT FILE
================================================================================
NAME = TBD.inp
|  1> # avogadro generated ORCA input file 
|  2> # Basic Mode
|  3> # 
|  4> ! wB97X-D3 OPT def2-TZVP def2/J CPCM
|  5> %cpcm
|  6>   epsilon 3
|  7> end
|  8> %pal
|  9>  nprocs 4
| 10> end
| 11> 
| 12> * xyz 0 1
| 13>    C        4.14670        2.88093        0.23486
| 14>    C        4.55099        1.76156       -0.71586
| 15>    C        2.65554        3.22430        0.02786
| 16>    H        4.76131        3.79328        0.07912
| 17>    H        4.31078        2.52031        1.27463
| 18>    N        1.81224        2.03989       -0.04187
| 19>    H        2.51783        3.79314       -0.91681
| 20>    H        2.33703        3.87085        0.87322
| 21>    C        2.36184        0.73451       -0.19053
| 22>    H        0.78826        2.15965       -0.05148
| 23>    N        3.76949        0.58684       -0.37637
| 24>    H        5.63991        1.54983       -0.64860
| 25>    H        4.31910        2.08144       -1.75555
| 26>    N        1.58906       -0.30359       -0.17689
| 27>    C        4.36395       -0.72995       -0.24323
| 28>    C        3.47710       -1.70611       -1.00177
| 29>    H        4.37536       -1.02629        0.82891
| 30>    H        5.40847       -0.74502       -0.62236
| 31>    C        2.07097       -1.66564       -0.37007
| 32>    H        3.88000       -2.74092       -0.96905
| 33>    H        3.42444       -1.37776       -2.06350
| 34>    H        1.36993       -2.22739       -1.02250
| 35>    H        2.08706       -2.16231        0.62391
| 36> *
| 37> 
| 38> 
| 39>                          ****END OF INPUT****
================================================================================

                       *****************************
                       * Geometry Optimization Run *
                       *****************************

Geometry optimization settings:
Update method            Update   .... BFGS
Choice of coordinates    CoordSys .... Z-matrix Internals
Initial Hessian          InHess   .... Almoef's Model

Convergence Tolerances:
Energy Change            TolE     ....  5.0000e-06 Eh
Max. Gradient            TolMAXG  ....  3.0000e-04 Eh/bohr
RMS Gradient             TolRMSG  ....  1.0000e-04 Eh/bohr
Max. Displacement        TolMAXD  ....  4.0000e-03 bohr
RMS Displacement         TolRMSD  ....  2.0000e-03 bohr
Strict Convergence                ....  False
------------------------------------------------------------------------------
                        ORCA OPTIMIZATION COORDINATE SETUP
------------------------------------------------------------------------------

The optimization will be done in new redundant internal coordinates
Making redundant internal coordinates   ...  (new redundants) done
Evaluating the initial hessian          ...  (Almloef) done
Evaluating the coordinates              ...  done
Calculating the B-matrix                .... done
Calculating the G-matrix                .... done
Diagonalizing the G-matrix              .... done
The first mode is                       ....   74
The number of degrees of freedom        ....   63

    -----------------------------------------------------------------
                    Redundant Internal Coordinates


    -----------------------------------------------------------------
         Definition                    Initial Value    Approx d2E/dq
    -----------------------------------------------------------------
      1. B(C   1,C   0)                  1.5233         0.382946   
      2. B(C   2,C   0)                  1.5441         0.354689   
      3. B(H   3,C   0)                  1.1110         0.333330   
      4. B(H   4,C   0)                  1.1127         0.331295   
      5. B(N   5,C   2)                  1.4556         0.439719   
      6. B(H   6,C   2)                  1.1113         0.333021   
      7. B(H   7,C   2)                  1.1109         0.333481   
      8. B(C   8,N   5)                  1.4241         0.493635   
      9. B(H   9,N   5)                  1.0310         0.400575   
     10. B(N  10,C   8)                  1.4275         0.487540   
     11. B(N  10,C   1)                  1.4512         0.446936   
     12. B(H  11,C   1)                  1.1114         0.332935   
     13. B(H  12,C   1)                  1.1122         0.331864   
     14. B(N  13,C   8)                  1.2942         0.795561   
     15. B(C  14,N  10)                  1.4509         0.447455   
     16. B(C  15,C  14)                  1.5214         0.385511   
     17. B(H  16,C  14)                  1.1124         0.331655   
     18. B(H  17,C  14)                  1.1113         0.332996   
     19. B(C  18,C  15)                  1.5420         0.357413   
     20. B(C  18,N  13)                  1.4576         0.436464   
     21. B(H  19,C  15)                  1.1110         0.333414   
     22. B(H  20,C  15)                  1.1126         0.331422   
     23. B(H  21,C  18)                  1.1103         0.334267   
     24. B(H  22,C  18)                  1.1113         0.333025   
     25. A(C   1,C   0,H   4)          107.8141         0.321218   
     26. A(H   3,C   0,H   4)          108.3943         0.283633   
     27. A(C   1,C   0,C   2)          109.6364         0.361674   
     28. A(C   2,C   0,H   4)          109.8613         0.317224   
     29. A(C   1,C   0,H   3)          111.6621         0.321541   
     30. A(C   2,C   0,H   3)          109.4399         0.317541   
     31. A(N  10,C   1,H  12)          109.8290         0.327597   
     32. A(C   0,C   1,N  10)          107.8131         0.373957   
     33. A(H  11,C   1,H  12)          108.4001         0.283657   
     34. A(N  10,C   1,H  11)          111.0557         0.327772   
     35. A(C   0,C   1,H  11)          111.2405         0.321478   
     36. A(C   0,C   1,H  12)          108.4665         0.321309   
     37. A(C   0,C   2,N   5)          112.6407         0.368025   
     38. A(H   6,C   2,H   7)          108.2662         0.283882   
     39. A(N   5,C   2,H   7)          110.1154         0.326982   
     40. A(C   0,C   2,H   7)          107.7153         0.317564   
     41. A(N   5,C   2,H   6)          107.6974         0.326907   
     42. A(C   0,C   2,H   6)          110.3318         0.317493   
     43. A(C   8,N   5,H   9)          119.2609         0.340676   
     44. A(C   2,N   5,H   9)          118.7718         0.334173   
     45. A(C   2,N   5,C   8)          121.8197         0.387228   
     46. A(N  10,C   8,N  13)          120.4764         0.429101   
     47. A(N   5,C   8,N  13)          120.2439         0.430059   
     48. A(N   5,C   8,N  10)          119.2717         0.394278   
     49. A(C   8,N  10,C  14)          119.0753         0.387566   
     50. A(C   1,N  10,C  14)          122.3776         0.381748   
     51. A(C   1,N  10,C   8)          118.5381         0.387488   
     52. A(C   8,N  13,C  18)          123.4146         0.420688   
     53. A(N  10,C  14,H  17)          111.4756         0.327844   
     54. A(C  15,C  14,H  16)          108.3959         0.321627   
     55. A(N  10,C  14,H  16)          109.5375         0.327626   
     56. A(N  10,C  14,C  15)          107.3211         0.374463   
     57. A(H  16,C  14,H  17)          108.3945         0.283637   
     58. A(C  15,C  14,H  17)          111.6591         0.321839   
     59. A(H  19,C  15,H  20)          108.6728         0.283661   
     60. A(C  18,C  15,H  20)          109.8782         0.317640   
     61. A(C  14,C  15,H  20)          108.3013         0.321590   
     62. A(C  18,C  15,H  19)          110.0644         0.317950   
     63. A(C  14,C  15,H  19)          111.8110         0.321906   
     64. A(C  14,C  15,C  18)          108.0863         0.362559   
     65. A(H  21,C  18,H  22)          107.9760         0.283987   
     66. A(C  15,C  18,H  22)          109.9671         0.317890   
     67. A(N  13,C  18,H  22)          107.6903         0.326508   
     68. A(C  15,C  18,H  21)          108.7695         0.318083   
     69. A(N  13,C  18,H  21)          109.9930         0.326709   
     70. A(N  13,C  18,C  15)          112.3512         0.368039   
     71. D(H  12,C   1,C   0,C   2)     56.1933         0.011679   
     72. D(H  11,C   1,C   0,C   2)    175.3263         0.011679   
     73. D(N  10,C   1,C   0,C   2)    -62.6843         0.011679   
     74. D(H  12,C   1,C   0,H   4)    175.7669         0.011679   
     75. D(N  10,C   1,C   0,H   4)     56.8894         0.011679   
     76. D(H  12,C   1,C   0,H   3)    -65.2689         0.011679   
     77. D(H  11,C   1,C   0,H   4)    -65.1000         0.011679   
     78. D(N  10,C   1,C   0,H   3)    175.8535         0.011679   
     79. D(H  11,C   1,C   0,H   3)     53.8642         0.011679   
     80. D(H   6,C   2,C   0,H   3)     48.4415         0.010115   
     81. D(H   6,C   2,C   0,C   1)    -74.3475         0.010115   
     82. D(N   5,C   2,C   0,H   4)    -72.2731         0.010115   
     83. D(N   5,C   2,C   0,H   3)    168.8265         0.010115   
     84. D(H   6,C   2,C   0,H   4)    167.3419         0.010115   
     85. D(N   5,C   2,C   0,C   1)     46.0375         0.010115   
     86. D(H   7,C   2,C   0,H   4)     49.3555         0.010115   
     87. D(H   7,C   2,C   0,H   3)    -69.5448         0.010115   
     88. D(H   7,C   2,C   0,C   1)    167.6661         0.010115   
     89. D(H   9,N   5,C   2,H   7)     51.6398         0.016487   
     90. D(H   9,N   5,C   2,C   0)    171.8964         0.016487   
     91. D(C   8,N   5,C   2,H   7)   -132.8108         0.016487   
     92. D(C   8,N   5,C   2,H   6)    109.3337         0.016487   
     93. D(H   9,N   5,C   2,H   6)    -66.2157         0.016487   
     94. D(C   8,N   5,C   2,C   0)    -12.5542         0.016487   
     95. D(N  13,C   8,N   5,H   9)     -8.2009         0.019250   
     96. D(N  10,C   8,N   5,H   9)    170.7777         0.019250   
     97. D(N  10,C   8,N   5,C   2)     -4.7506         0.019250   
     98. D(N  13,C   8,N   5,C   2)    176.2708         0.019250   
     99. D(C   8,N  10,C   1,H  11)    169.5960         0.017038   
    100. D(C   8,N  10,C   1,C   0)     47.4924         0.017038   
    101. D(C   8,N  10,C   1,H  12)    -70.5116         0.017038   
    102. D(C  14,N  10,C   8,N  13)    -14.0292         0.018765   
    103. D(C  14,N  10,C   8,N   5)    166.9946         0.018765   
    104. D(C   1,N  10,C   8,N  13)    164.9050         0.018765   
    105. D(C   1,N  10,C   8,N   5)    -14.0712         0.018765   
    106. D(C  14,N  10,C   1,H  12)    108.3854         0.017038   
    107. D(C  14,N  10,C   1,H  11)    -11.5070         0.017038   
    108. D(C  14,N  10,C   1,C   0)   -133.6106         0.017038   
    109. D(C  18,N  13,C   8,N  10)     -1.2108         0.048716   
    110. D(C  18,N  13,C   8,N   5)    177.7554         0.048716   
    111. D(H  17,C  14,N  10,C   8)    167.7305         0.017078   
    112. D(H  17,C  14,N  10,C   1)    -11.1608         0.017078   
    113. D(H  16,C  14,N  10,C   8)    -72.3075         0.017078   
    114. D(H  16,C  14,N  10,C   1)    108.8012         0.017078   
    115. D(C  15,C  14,N  10,C   8)     45.1724         0.017078   
    116. D(C  15,C  14,N  10,C   1)   -133.7189         0.017078   
    117. D(H  20,C  15,C  14,H  16)    177.1126         0.011828   
    118. D(H  20,C  15,C  14,N  10)     58.8901         0.011828   
    119. D(H  19,C  15,C  14,H  17)     56.1542         0.011828   
    120. D(H  19,C  15,C  14,H  16)    -63.1791         0.011828   
    121. D(H  19,C  15,C  14,N  10)    178.5984         0.011828   
    122. D(C  18,C  15,C  14,H  17)    177.4486         0.011828   
    123. D(C  18,C  15,C  14,H  16)     58.1153         0.011828   
    124. D(H  20,C  15,C  14,H  17)    -63.5542         0.011828   
    125. D(C  18,C  15,C  14,N  10)    -60.1072         0.011828   
    126. D(H  21,C  18,C  15,C  14)    169.7831         0.010259   
    127. D(N  13,C  18,C  15,H  20)    -70.2261         0.010259   
    128. D(N  13,C  18,C  15,H  19)    170.1367         0.010259   
    129. D(N  13,C  18,C  15,C  14)     47.7658         0.010259   
    130. D(H  22,C  18,N  13,C   8)    103.9661         0.015003   
    131. D(H  21,C  18,N  13,C   8)   -138.5979         0.015003   
    132. D(H  21,C  18,C  15,H  19)    -67.8460         0.010259   
    133. D(C  15,C  18,N  13,C   8)    -17.2784         0.015003   
    134. D(H  22,C  18,C  15,H  20)    169.8429         0.010259   
    135. D(H  22,C  18,C  15,H  19)     50.2057         0.010259   
    136. D(H  22,C  18,C  15,C  14)    -72.1652         0.010259   
    137. D(H  21,C  18,C  15,H  20)     51.7911         0.010259   
    -----------------------------------------------------------------

Number of atoms                         .... 23
Number of degrees of freedom            .... 137

         *************************************************************
         *                GEOMETRY OPTIMIZATION CYCLE   1            *
         *************************************************************
---------------------------------
CARTESIAN COORDINATES (ANGSTROEM)
---------------------------------
  C      4.146700    2.880930    0.234860
  C      4.550990    1.761560   -0.715860
  C      2.655540    3.224300    0.027860
  H      4.761310    3.793280    0.079120
  H      4.310780    2.520310    1.274630
  N      1.812240    2.039890   -0.041870
  H      2.517830    3.793140   -0.916810
  H      2.337030    3.870850    0.873220
  C      2.361840    0.734510   -0.190530
  H      0.788260    2.159650   -0.051480
  N      3.769490    0.586840   -0.376370
  H      5.639910    1.549830   -0.648600
  H      4.319100    2.081440   -1.755550
  N      1.589060   -0.303590   -0.176890
  C      4.363950   -0.729950   -0.243230
  C      3.477100   -1.706110   -1.001770
  H      4.375360   -1.026290    0.828910
  H      5.408470   -0.745020   -0.622360
  C      2.070970   -1.665640   -0.370070
  H      3.880000   -2.740920   -0.969050
  H      3.424440   -1.377760   -2.063500
  H      1.369930   -2.227390   -1.022500
  H      2.087060   -2.162310    0.623910

----------------------------
CARTESIAN COORDINATES (A.U.)
----------------------------
  NO LB      ZA    FRAG     MASS         X           Y           Z
   0 C     6.0000    0    12.011    7.836127    5.444169    0.443821
   1 C     6.0000    0    12.011    8.600125    3.328866   -1.352779
   2 C     6.0000    0    12.011    5.018243    6.093044    0.052648
   3 H     1.0000    0     1.008    8.997572    7.168260    0.149515
   4 H     1.0000    0     1.008    8.146194    4.762696    2.408702
   5 N     7.0000    0    14.007    3.424637    3.854833   -0.079123
   6 H     1.0000    0     1.008    4.758009    7.167996   -1.732520
   7 H     1.0000    0     1.008    4.416347    7.314846    1.650147
   8 C     6.0000    0    12.011    4.463231    1.388023   -0.360050
   9 H     1.0000    0     1.008    1.489596    4.081147   -0.097283
  10 N     7.0000    0    14.007    7.123304    1.108967   -0.711236
  11 H     1.0000    0     1.008   10.657885    2.928754   -1.225676
  12 H     1.0000    0     1.008    8.161916    3.933352   -3.317509
  13 N     7.0000    0    14.007    3.002888   -0.573702   -0.334274
  14 C     6.0000    0    12.011    8.246670   -1.379406   -0.459638
  15 C     6.0000    0    12.011    6.570767   -3.224081   -1.893071
  16 H     1.0000    0     1.008    8.268232   -1.939407    1.566413
  17 H     1.0000    0     1.008   10.220527   -1.407884   -1.176090
  18 C     6.0000    0    12.011    3.913566   -3.147603   -0.699331
  19 H     1.0000    0     1.008    7.332137   -5.179588   -1.831239
  20 H     1.0000    0     1.008    6.471254   -2.603589   -3.899450
  21 H     1.0000    0     1.008    2.588793   -4.209157   -1.932245
  22 H     1.0000    0     1.008    3.943972   -4.086174    1.179019

--------------------------------
INTERNAL COORDINATES (ANGSTROEM)
--------------------------------
 C      0   0   0     0.000000000000     0.00000000     0.00000000
 C      1   0   0     1.523255762963     0.00000000     0.00000000
 C      1   2   0     1.544121142430   109.63639508     0.00000000
 H      1   2   3     1.111027867427   111.66209335   238.53782942
 H      1   2   3     1.112695233970   107.81413509   119.57367409
 N      3   1   2     1.455625024173   112.64067021    46.03745019
 H      3   1   2     1.111280522011   110.33176271   285.65247685
 H      3   1   2     1.110904609856   107.71529220   167.66612469
 C      6   3   1     1.424140758493   121.81971852   347.44582775
 H      6   3   1     1.031004291989   118.77181388   171.89640113
 N      9   6   3     1.427522839397   119.27174419   355.24942553
 H      2   1   3     1.111350649840   111.24046063   175.32634262
 H      2   1   3     1.112228161215   108.46645010    56.19326716
 N      9   6   3     1.294228182354   120.24387401   176.27079578
 C     11   9   6     1.450877270930   119.07532905   166.99464730
 C     15  11   9     1.521438201078   107.32114050    45.17238520
 H     15  11   9     1.112399102526   109.53751219   287.69246128
 H     15  11   9     1.111300450913   111.47555444   167.73049985
 C     14   9   6     1.457647406954   123.41459636   177.75542364
 H     16  15  11     1.110959380221   111.81102997   178.59840865
 H     16  15  11     1.112590396777   108.30132780    58.89008408
 H     19  14   9     1.110263504309   109.99298346   221.40209156
 H     19  14   9     1.111276841026   107.69028571   103.96611679

---------------------------
INTERNAL COORDINATES (A.U.)
---------------------------
 C      0   0   0     0.000000000000     0.00000000     0.00000000
 C      1   0   0     2.878536223917     0.00000000     0.00000000
 C      1   2   0     2.917966076791   109.63639508     0.00000000
 H      1   2   3     2.099538396592   111.66209335   238.53782942
 H      1   2   3     2.102689262723   107.81413509   119.57367409
 N      3   1   2     2.750732649370   112.64067021    46.03745019
 H      3   1   2     2.100015844561   110.33176271   285.65247685
 H      3   1   2     2.099305473539   107.71529220   167.66612469
 C      6   3   1     2.691236009706   121.81971852   347.44582775
 H      6   3   1     1.948315754757   118.77181388   171.89640113
 N      9   6   3     2.697627216378   119.27174419   355.24942553
 H      2   1   3     2.100148366953   111.24046063   175.32634262
 H      2   1   3     2.101806623131   108.46645010    56.19326716
 N      9   6   3     2.445736819452   120.24387401   176.27079578
 C     11   9   6     2.741760695988   119.07532905   166.99464730
 C     15  11   9     2.875101529724   107.32114050    45.17238520
 H     15  11   9     2.102129655393   109.53751219   287.69246128
 H     15  11   9     2.100053504729   111.47555444   167.73049985
 C     14   9   6     2.754554398964   123.41459636   177.75542364
 H     16  15  11     2.099408974528   111.81102997   178.59840865
 H     16  15  11     2.102491149139   108.30132780    58.89008408
 H     19  14   9     2.098093959631   109.99298346   221.40209156
 H     19  14   9     2.100008888508   107.69028571   103.96611679

---------------------
BASIS SET INFORMATION
---------------------
There are 3 groups of distinct atoms

 Group   1 Type C   : 11s6p2d1f contracted to 5s3p2d1f pattern {62111/411/11/1}
 Group   2 Type H   : 5s1p contracted to 3s1p pattern {311/1}
 Group   3 Type N   : 11s6p2d1f contracted to 5s3p2d1f pattern {62111/411/11/1}

Atom   0C    basis set group =>   1
Atom   1C    basis set group =>   1
Atom   2C    basis set group =>   1
Atom   3H    basis set group =>   2
Atom   4H    basis set group =>   2
Atom   5N    basis set group =>   3
Atom   6H    basis set group =>   2
Atom   7H    basis set group =>   2
Atom   8C    basis set group =>   1
Atom   9H    basis set group =>   2
Atom  10N    basis set group =>   3
Atom  11H    basis set group =>   2
Atom  12H    basis set group =>   2
Atom  13N    basis set group =>   3
Atom  14C    basis set group =>   1
Atom  15C    basis set group =>   1
Atom  16H    basis set group =>   2
Atom  17H    basis set group =>   2
Atom  18C    basis set group =>   1
Atom  19H    basis set group =>   2
Atom  20H    basis set group =>   2
Atom  21H    basis set group =>   2
Atom  22H    basis set group =>   2
---------------------------------
AUXILIARY/J BASIS SET INFORMATION
---------------------------------
There are 3 groups of distinct atoms

 Group   1 Type C   : 12s5p4d2f1g contracted to 6s4p3d1f1g pattern {711111/2111/211/2/1}
 Group   2 Type H   : 5s2p1d contracted to 3s1p1d pattern {311/2/1}
 Group   3 Type N   : 12s5p4d2f1g contracted to 6s4p3d1f1g pattern {711111/2111/211/2/1}

Atom   0C    basis set group =>   1
Atom   1C    basis set group =>   1
Atom   2C    basis set group =>   1
Atom   3H    basis set group =>   2
Atom   4H    basis set group =>   2
Atom   5N    basis set group =>   3
Atom   6H    basis set group =>   2
Atom   7H    basis set group =>   2
Atom   8C    basis set group =>   1
Atom   9H    basis set group =>   2
Atom  10N    basis set group =>   3
Atom  11H    basis set group =>   2
Atom  12H    basis set group =>   2
Atom  13N    basis set group =>   3
Atom  14C    basis set group =>   1
Atom  15C    basis set group =>   1
Atom  16H    basis set group =>   2
Atom  17H    basis set group =>   2
Atom  18C    basis set group =>   1
Atom  19H    basis set group =>   2
Atom  20H    basis set group =>   2
Atom  21H    basis set group =>   2
Atom  22H    basis set group =>   2
--------------------------------------------------------------------------
[[65406,1],1]: A high-performance Open MPI point-to-point messaging module
was unable to find any relevant network interfaces:

Module: OpenFabrics (openib)
  Host: compute-1-5

Another transport will be used instead, although this may result in
lower performance.

NOTE: You can disable this warning by setting the MCA parameter
btl_base_warn_component_unused to 0.
--------------------------------------------------------------------------


           ************************************************************
           *        Program running with 4 parallel MPI-processes     *
           *              working on a common directory               *
           ************************************************************
------------------------------------------------------------------------------
                           ORCA GTO INTEGRAL CALCULATION
------------------------------------------------------------------------------

                         BASIS SET STATISTICS AND STARTUP INFO

 # of primitive gaussian shells          ...  278
 # of primitive gaussian functions       ...  564
 # of contracted shells                  ...  162
 # of contracted basis functions         ...  388
 Highest angular momentum                ...    3
 Maximum contraction depth               ...    6
 Integral package used                   ... LIBINT
 Integral threshhold            Thresh   ...  2.500e-11
 Primitive cut-off              TCut     ...  2.500e-12


------------------------------ INTEGRAL EVALUATION ----------------------------


 * One electron integrals 
 Pre-screening matrix                    ... done
 Shell pair data                         ... done (   0.005 sec)

[compute-1-5.local:07850] 3 more processes have sent help message help-mpi-btl-base.txt / btl:no-nics
[compute-1-5.local:07850] Set MCA parameter "orte_base_help_aggregate" to 0 to see all help / error messages
--------------------------------------------------------------------------
[[65302,1],0]: A high-performance Open MPI point-to-point messaging module
was unable to find any relevant network interfaces:

Module: OpenFabrics (openib)
  Host: compute-1-5

Another transport will be used instead, although this may result in
lower performance.

NOTE: You can disable this warning by setting the MCA parameter
btl_base_warn_component_unused to 0.
--------------------------------------------------------------------------


           ************************************************************
           *        Program running with 4 parallel MPI-processes     *
           *              working on a common directory               *
           ************************************************************
-------------------------------------------------------------------------------
                                 ORCA SCF
-------------------------------------------------------------------------------

------------
SCF SETTINGS
------------
Hamiltonian:
 Density Functional     Method          .... DFT(GTOs)
 Exchange Functional    Exchange        .... WB97X-D3
 Correlation Functional Correlation     .... WB97X-D3
 Gradients option       PostSCFGGA      .... off
 Hybrid DFT is turned on
   Fraction HF Exchange ScalHFX         ....  0.195728
   Scaling of DF-GGA-X  ScalDFX         ....  0.000000
   Scaling of DF-GGA-C  ScalDFC         ....  1.000000
   Scaling of DF-LDA-C  ScalLDAC        ....  1.000000
   Perturbative correction              ....  0.000000
   Density functional embedding theory  .... OFF
 Long-range corrected/Screened/Range-Separated Hybrid DFT is turned on
   Amount of maximum screened exact exchange              ....  0.804272
   Range separation parameter mu (erf(mu*r12)/r12)        ....  0.250000


General Settings:
 Integral files         IntName         .... TBD
 Hartree-Fock type      HFTyp           .... RHF
 Total Charge           Charge          ....    0
 Multiplicity           Mult            ....    1
 Number of Electrons    NEL             ....   76
 Basis Dimension        Dim             ....  388
 Nuclear Repulsion      ENuc            ....    565.7319236927 Eh

Convergence Acceleration:
 DIIS                   CNVDIIS         .... on
   Start iteration      DIISMaxIt       ....    12
   Startup error        DIISStart       ....  0.200000
   # of expansion vecs  DIISMaxEq       ....     5
   Bias factor          DIISBfac        ....   1.050
   Max. coefficient     DIISMaxC        ....  10.000
 Newton-Raphson         CNVNR           .... off
 SOSCF                  CNVSOSCF        .... on
   Start iteration      SOSCFMaxIt      ....   150
   Startup grad/error   SOSCFStart      ....  0.003300
 Level Shifting         CNVShift        .... on
   Level shift para.    LevelShift      ....    0.2500
   Turn off err/grad.   ShiftErr        ....    0.0010
 Zerner damping         CNVZerner       .... off
 Static damping         CNVDamp         .... on
   Fraction old density DampFac         ....    0.7000
   Max. Damping (<1)    DampMax         ....    0.9800
   Min. Damping (>=0)   DampMin         ....    0.0000
   Turn off err/grad.   DampErr         ....    0.1000
 Fernandez-Rico         CNVRico         .... off

SCF Procedure:
 Maximum # iterations   MaxIter         ....   125
 SCF integral mode      SCFMode         .... Direct
   Integral package                     .... LIBINT
 Reset frequency        DirectResetFreq ....    20
 Integral Threshold     Thresh          ....  2.500e-11 Eh
 Primitive CutOff       TCut            ....  2.500e-12 Eh

Convergence Tolerance:
 Convergence Check Mode ConvCheckMode   .... Total+1el-Energy
 Convergence forced     ConvForced      .... 0
 Energy Change          TolE            ....  1.000e-08 Eh
 1-El. energy change                    ....  1.000e-05 Eh
 Orbital Gradient       TolG            ....  1.000e-05
 Orbital Rotation angle TolX            ....  1.000e-05
 DIIS Error             TolErr          ....  5.000e-07


Diagonalization of the overlap matrix:
Smallest eigenvalue                        ... 1.858e-04
Time for diagonalization                   ...    0.052 sec
Threshold for overlap eigenvalues          ... 1.000e-08
Number of eigenvalues below threshold      ... 0
Time for construction of square roots      ...    0.022 sec
Total time needed                          ...    0.075 sec

-------------------
DFT GRID GENERATION
-------------------

General Integration Accuracy     IntAcc      ...  4.340
Radial Grid Type                 RadialGrid  ... Gauss-Chebyshev
Angular Grid (max. acc.)         AngularGrid ... Lebedev-110
Angular grid pruning method      GridPruning ... 3 (G Style)
Weight generation scheme         WeightScheme... Becke
Basis function cutoff            BFCut       ...    1.0000e-11
Integration weight cutoff        WCut        ...    1.0000e-14
Grids for H and He will be reduced by one unit

# of grid points (after initial pruning)     ...  27020 (   0.0 sec)
# of grid points (after weights+screening)   ...  24526 (   0.1 sec)
nearest neighbour list constructed           ...    0.0 sec
Grid point re-assignment to atoms done       ...    0.0 sec
Grid point division into batches done        ...    0.0 sec
Reduced shell lists constructed in    0.1 sec

Total number of grid points                  ...    24526
Total number of batches                      ...      393
Average number of points per batch           ...       62
Average number of grid points per atom       ...     1066
Average number of shells per batch           ...   106.69 (65.86%)
Average number of basis functions per batch  ...   260.43 (67.12%)
Average number of large shells per batch     ...    82.14 (76.99%)
Average number of large basis fcns per batch ...   197.60 (75.87%)
Maximum spatial batch extension              ...  16.13, 17.31, 25.99 au
Average spatial batch extension              ...   0.72,  0.72,  0.78 au

Time for grid setup =    0.229 sec

------------------------------
INITIAL GUESS: MODEL POTENTIAL
------------------------------
Loading Hartree-Fock densities                     ... done
Calculating cut-offs                               ... done
Setting up the integral package                    ... done
Initializing the effective Hamiltonian             ... done
Starting the Coulomb interaction                   ... done (   0.2 sec)
Reading the grid                                   ... done
Mapping shells                                     ... done
Starting the XC term evaluation                    ... done (   0.4 sec)
  promolecular density results
     # of electrons  =     76.006367667
     EX              =    -59.261542599
     EC              =     -2.540199152
     EX+EC           =    -61.801741750
Transforming the Hamiltonian                       ... done (   0.0 sec)
Diagonalizing the Hamiltonian                      ... done (   0.0 sec)
Back transforming the eigenvectors                 ... done (   0.0 sec)
Now organizing SCF variables                       ... done
                      ------------------
                      INITIAL GUESS DONE (   1.0 sec)
                      ------------------

--------------------
CPCM SOLVATION MODEL
--------------------
CPCM parameters:
  Epsilon                                         ...       3.0000
  Refrac                                          ...       1.3300
  Rsolv                                           ...       1.3000
  Surface type                                    ...    GEPOL SES
  Epsilon function type                           ...         CPCM
Radii:
 Radius for C  used is    3.7795 Bohr (=   2.0000 Ang.)
 Radius for H  used is    2.4566 Bohr (=   1.3000 Ang.)
 Radius for N  used is    3.4582 Bohr (=   1.8300 Ang.)
Calculating surface                               ...        done! (  0.1s)
GEPOL surface points                              ...          796
GEPOL Volume                                      ...    1184.0177
GEPOL Surface-area                                ...     643.9378
Calculating surface distance matrix               ...        done! (  0.0s)
Performing Cholesky decomposition & store         ...        done! (  0.0s)
Overall time for CPCM initialization              ...                 0.1s
--------------
SCF ITERATIONS
--------------
ITER       Energy         Delta-E        Max-DP      RMS-DP      [F,P]     Damp
               ***  Starting incremental Fock matrix formation  ***
[compute-1-5.local:07874] 3 more processes have sent help message help-mpi-btl-base.txt / btl:no-nics
[compute-1-5.local:07874] Set MCA parameter "orte_base_help_aggregate" to 0 to see all help / error messages
  0   -438.5787725901   0.000000000000 0.04326651  0.00071161  0.2513978 0.7000
  1   -438.6914241753  -0.112651585194 0.03606971  0.00059157  0.1344597 0.7000
                               ***Turning on DIIS***
  2   -438.7473743966  -0.055950221317 0.06892116  0.00122287  0.0582299 0.0000
  3   -438.8372145759  -0.089840179228 0.02158209  0.00035562  0.0604086 0.0000
  4   -438.8519189744  -0.014704398577 0.00399212  0.00009790  0.0053809 0.0000
  5   -438.8522970909  -0.000378116459 0.00179076  0.00004077  0.0043773 0.0000
                      *** Initiating the SOSCF procedure ***
                           *** Shutting down DIIS ***
                      *** Re-Reading the Fockian *** 
                      *** Removing any level shift *** 
ITER      Energy       Delta-E        Grad      Rot      Max-DP    RMS-DP
  6   -438.85236288  -0.0000657852  0.000836  0.000836  0.001723  0.000037
               *** Restarting incremental Fock matrix formation ***
  7   -438.85237810  -0.0000152231  0.000134  0.000335  0.000488  0.000011
  8   -438.85237921  -0.0000011067  0.000314  0.000569  0.000321  0.000006
  9   -438.85238076  -0.0000015523  0.000056  0.000198  0.000097  0.000002
 10   -438.85238081  -0.0000000555  0.000017  0.000075  0.000042  0.000001
 11   -438.85238083  -0.0000000179  0.000006  0.000018  0.000025  0.000000
                  ***Gradient check signals convergence***
              ***Rediagonalizing the Fockian in SOSCF/NRSCF***

               *****************************************************
               *                     SUCCESS                       *
               *           SCF CONVERGED AFTER  12 CYCLES          *
               *****************************************************

Setting up the final grid:

General Integration Accuracy     IntAcc      ...  4.670
Radial Grid Type                 RadialGrid  ... Gauss-Chebyshev
Angular Grid (max. acc.)         AngularGrid ... Lebedev-302
Angular grid pruning method      GridPruning ... 3 (G Style)
Weight generation scheme         WeightScheme... Becke
Basis function cutoff            BFCut       ...    1.0000e-11
Integration weight cutoff        WCut        ...    1.0000e-14
Grids for H and He will be reduced by one unit

# of grid points (after initial pruning)     ... 106242 (   0.0 sec)
# of grid points (after weights+screening)   ...  94617 (   0.2 sec)
nearest neighbour list constructed           ...    0.0 sec
Grid point re-assignment to atoms done       ...    0.0 sec
Grid point division into batches done        ...    0.4 sec
Reduced shell lists constructed in    0.9 sec

Total number of grid points                  ...    94617
Total number of batches                      ...     1491
Average number of points per batch           ...       63
Average number of grid points per atom       ...     4114
Average number of shells per batch           ...    99.20 (61.23%)
Average number of basis functions per batch  ...   239.91 (61.83%)
Average number of large shells per batch     ...    74.93 (75.54%)
Average number of large basis fcns per batch ...   178.72 (74.50%)
Maximum spatial batch extension              ...  15.99, 15.90, 17.61 au
Average spatial batch extension              ...   0.49,  0.48,  0.49 au

Final grid set up in    1.1 sec
Final integration                            ... done (   1.6 sec)
Change in XC energy                          ...     0.001224534
Integrated number of electrons               ...    76.000024575
Previous integrated no of electrons          ...    76.006113043

----------------
TOTAL SCF ENERGY
----------------

Total Energy       :         -438.85115630 Eh          -11941.74707 eV

Components:
Nuclear Repulsion  :          565.73192369 Eh           15394.34828 eV
Electronic Energy  :        -1004.58307999 Eh          -27336.09535 eV
One Electron Energy:        -1715.63315586 Eh          -46684.75158 eV
Two Electron Energy:          711.05007587 Eh           19348.65623 eV
CPCM Dielectric    :           -0.01037967 Eh              -0.28245 eV

Virial components:
Potential Energy   :         -874.99788983 Eh          -23809.90305 eV
Kinetic Energy     :          436.14673353 Eh           11868.15598 eV
Virial Ratio       :            2.00620072


DFT components:
N(Alpha)           :       38.000012287597 electrons
N(Beta)            :       38.000012287597 electrons
N(Total)           :       76.000024575194 electrons
E(XC)              :      -43.514085825368 Eh       
DFET-embed. en.    :        0.000000000000 Eh       
CPCM Solvation Model Properties:
Surface-charge          :           -0.03286295
Charge-correction       :           -0.00037178 Eh              -0.01012 eV
Free-energy (cav+disp)  :            0.00404883 Eh               0.11017 eV
Corrected G(solv)       :         -438.84747925 Eh          -11941.64701 eV

---------------
SCF CONVERGENCE
---------------

  Last Energy change         ...   -1.6871e-09  Tolerance :   1.0000e-08
  Last MAX-Density change    ...    1.0288e-05  Tolerance :   1.0000e-07
  Last RMS-Density change    ...    1.2327e-07  Tolerance :   5.0000e-09
  Last Orbital Gradient      ...    9.7392e-07  Tolerance :   1.0000e-05
  Last Orbital Rotation      ...    2.2914e-06  Tolerance :   1.0000e-05

             **** THE GBW FILE WAS UPDATED (TBD.gbw) ****
             **** DENSITY FILE WAS UPDATED (TBD.scfp) ****
             **** ENERGY FILE WAS UPDATED (TBD.en.tmp) ****
             **** THE GBW FILE WAS UPDATED (TBD.gbw) ****
             **** DENSITY FILE WAS UPDATED (TBD.scfp) ****
----------------
ORBITAL ENERGIES
----------------

  NO   OCC          E(Eh)            E(eV) 
   0   2.0000     -14.428420      -392.6173 
   1   2.0000     -14.428147      -392.6098 
   2   2.0000     -14.361774      -390.8037 
   3   2.0000     -10.373148      -282.2677 
   4   2.0000     -10.309301      -280.5303 
   5   2.0000     -10.307508      -280.4816 
   6   2.0000     -10.304607      -280.4026 
   7   2.0000     -10.287823      -279.9459 
   8   2.0000     -10.279347      -279.7152 
   9   2.0000     -10.264259      -279.3047 
  10   2.0000      -1.091328       -29.6965 
  11   2.0000      -1.010148       -27.4875 
  12   2.0000      -0.982522       -26.7358 
  13   2.0000      -0.885193       -24.0873 
  14   2.0000      -0.881809       -23.9952 
  15   2.0000      -0.786469       -21.4009 
  16   2.0000      -0.762600       -20.7514 
  17   2.0000      -0.744263       -20.2524 
  18   2.0000      -0.687845       -18.7172 
  19   2.0000      -0.639105       -17.3909 
  20   2.0000      -0.604895       -16.4600 
  21   2.0000      -0.587983       -15.9998 
  22   2.0000      -0.579183       -15.7604 
  23   2.0000      -0.560148       -15.2424 
  24   2.0000      -0.536660       -14.6033 
  25   2.0000      -0.529500       -14.4084 
  26   2.0000      -0.510933       -13.9032 
  27   2.0000      -0.506014       -13.7693 
  28   2.0000      -0.496062       -13.4985 
  29   2.0000      -0.481747       -13.1090 
  30   2.0000      -0.455987       -12.4080 
  31   2.0000      -0.442216       -12.0333 
  32   2.0000      -0.438363       -11.9285 
  33   2.0000      -0.416335       -11.3291 
  34   2.0000      -0.411129       -11.1874 
  35   2.0000      -0.321763        -8.7556 
  36   2.0000      -0.314779        -8.5656 
  37   2.0000      -0.283365        -7.7107 
  38   0.0000       0.113546         3.0897 
  39   0.0000       0.116881         3.1805 
  40   0.0000       0.138196         3.7605 
  41   0.0000       0.143939         3.9168 
  42   0.0000       0.158106         4.3023 
  43   0.0000       0.162834         4.4309 
  44   0.0000       0.166980         4.5438 
  45   0.0000       0.176055         4.7907 
  46   0.0000       0.179645         4.8884 
  47   0.0000       0.190789         5.1916 
  48   0.0000       0.200411         5.4535 
  49   0.0000       0.212017         5.7693 
  50   0.0000       0.213636         5.8133 
  51   0.0000       0.218052         5.9335 
  52   0.0000       0.226327         6.1587 
  53   0.0000       0.235690         6.4135 
  54   0.0000       0.242352         6.5947 
  55   0.0000       0.245726         6.6865 
  56   0.0000       0.263009         7.1568 
  57   0.0000       0.282474         7.6865 
  58   0.0000       0.284576         7.7437 
  59   0.0000       0.289393         7.8748 
  60   0.0000       0.301776         8.2117 
  61   0.0000       0.306212         8.3325 
  62   0.0000       0.321325         8.7437 
  63   0.0000       0.327540         8.9128 
  64   0.0000       0.339914         9.2495 
  65   0.0000       0.354078         9.6349 
  66   0.0000       0.360029         9.7969 
  67   0.0000       0.362730         9.8704 
  68   0.0000       0.376634        10.2487 
  69   0.0000       0.408596        11.1185 
  70   0.0000       0.411462        11.1964 
  71   0.0000       0.420095        11.4314 
  72   0.0000       0.428978        11.6731 
  73   0.0000       0.434232        11.8161 
  74   0.0000       0.459479        12.5031 
  75   0.0000       0.469668        12.7803 
  76   0.0000       0.477282        12.9875 
  77   0.0000       0.487847        13.2750 
  78   0.0000       0.493875        13.4390 
  79   0.0000       0.498759        13.5719 
  80   0.0000       0.499805        13.6004 
  81   0.0000       0.507287        13.8040 
  82   0.0000       0.513166        13.9640 
  83   0.0000       0.515839        14.0367 
  84   0.0000       0.522354        14.2140 
  85   0.0000       0.522892        14.2286 
  86   0.0000       0.529267        14.4021 
  87   0.0000       0.534019        14.5314 
  88   0.0000       0.539045        14.6682 
  89   0.0000       0.542489        14.7619 
  90   0.0000       0.554945        15.1008 
  91   0.0000       0.561990        15.2925 
  92   0.0000       0.563275        15.3275 
  93   0.0000       0.571370        15.5478 
  94   0.0000       0.575982        15.6733 
  95   0.0000       0.588721        16.0199 
  96   0.0000       0.590943        16.0804 
  97   0.0000       0.606735        16.5101 
  98   0.0000       0.622543        16.9402 
  99   0.0000       0.641831        17.4651 
 100   0.0000       0.663849        18.0643 
 101   0.0000       0.666906        18.1474 
 102   0.0000       0.673795        18.3349 
 103   0.0000       0.691687        18.8218 
 104   0.0000       0.702713        19.1218 
 105   0.0000       0.730932        19.8897 
 106   0.0000       0.745562        20.2878 
 107   0.0000       0.781972        21.2785 
 108   0.0000       0.783769        21.3274 
 109   0.0000       0.791927        21.5494 
 110   0.0000       0.802896        21.8479 
 111   0.0000       0.812251        22.1025 
 112   0.0000       0.830602        22.6018 
 113   0.0000       0.837504        22.7896 
 114   0.0000       0.849701        23.1215 
 115   0.0000       0.864062        23.5123 
 116   0.0000       0.892017        24.2730 
 117   0.0000       0.898240        24.4424 
 118   0.0000       0.908904        24.7325 
 119   0.0000       0.933546        25.4031 
 120   0.0000       0.943909        25.6851 
 121   0.0000       0.959122        26.0990 
 122   0.0000       0.970803        26.4169 
 123   0.0000       0.980564        26.6825 
 124   0.0000       1.002767        27.2867 
 125   0.0000       1.023225        27.8434 
 126   0.0000       1.034728        28.1564 
 127   0.0000       1.067196        29.0399 
 128   0.0000       1.091357        29.6973 
 129   0.0000       1.100224        29.9386 
 130   0.0000       1.109825        30.1999 
 131   0.0000       1.153948        31.4005 
 132   0.0000       1.156666        31.4745 
 133   0.0000       1.166663        31.7465 
 134   0.0000       1.183207        32.1967 
 135   0.0000       1.192888        32.4601 
 136   0.0000       1.216032        33.0899 
 137   0.0000       1.225197        33.3393 
 138   0.0000       1.233966        33.5779 
 139   0.0000       1.266097        34.4523 
 140   0.0000       1.272850        34.6360 
 141   0.0000       1.299846        35.3706 
 142   0.0000       1.302141        35.4331 
 143   0.0000       1.311949        35.6999 
 144   0.0000       1.345083        36.6016 
 145   0.0000       1.347434        36.6655 
 146   0.0000       1.370246        37.2863 
 147   0.0000       1.374225        37.3946 
 148   0.0000       1.397572        38.0299 
 149   0.0000       1.418675        38.6041 
 150   0.0000       1.441594        39.2278 
 151   0.0000       1.447527        39.3892 
 152   0.0000       1.489096        40.5204 
 153   0.0000       1.512770        41.1646 
 154   0.0000       1.528689        41.5977 
 155   0.0000       1.569634        42.7119 
 156   0.0000       1.580779        43.0152 
 157   0.0000       1.605394        43.6850 
 158   0.0000       1.621945        44.1354 
 159   0.0000       1.627043        44.2741 
 160   0.0000       1.638722        44.5919 
 161   0.0000       1.649776        44.8927 
 162   0.0000       1.658755        45.1370 
 163   0.0000       1.671365        45.4802 
 164   0.0000       1.672999        45.5246 
 165   0.0000       1.683593        45.8129 
 166   0.0000       1.689617        45.9768 
 167   0.0000       1.702224        46.3199 
 168   0.0000       1.716845        46.7177 
 169   0.0000       1.724398        46.9233 
 170   0.0000       1.726156        46.9711 
 171   0.0000       1.754286        47.7365 
 172   0.0000       1.763496        47.9872 
 173   0.0000       1.769287        48.1447 
 174   0.0000       1.782180        48.4956 
 175   0.0000       1.793216        48.7959 
 176   0.0000       1.801513        49.0216 
 177   0.0000       1.819928        49.5228 
 178   0.0000       1.833488        49.8917 
 179   0.0000       1.846504        50.2459 
 180   0.0000       1.888338        51.3843 
 181   0.0000       1.896296        51.6008 
 182   0.0000       1.911489        52.0143 
 183   0.0000       1.915841        52.1327 
 184   0.0000       1.924792        52.3763 
 185   0.0000       1.938959        52.7618 
 186   0.0000       1.969723        53.5989 
 187   0.0000       2.004899        54.5561 
 188   0.0000       2.023351        55.0582 
 189   0.0000       2.033566        55.3361 
 190   0.0000       2.059982        56.0549 
 191   0.0000       2.074305        56.4447 
 192   0.0000       2.078632        56.5625 
 193   0.0000       2.109178        57.3937 
 194   0.0000       2.122900        57.7671 
 195   0.0000       2.141666        58.2777 
 196   0.0000       2.150870        58.5281 
 197   0.0000       2.166527        58.9542 
 198   0.0000       2.189254        59.5726 
 199   0.0000       2.197005        59.7835 
 200   0.0000       2.234062        60.7919 
 201   0.0000       2.251059        61.2544 
 202   0.0000       2.266119        61.6642 
 203   0.0000       2.286846        62.2282 
 204   0.0000       2.304983        62.7218 
 205   0.0000       2.326236        63.3001 
 206   0.0000       2.345692        63.8295 
 207   0.0000       2.372724        64.5651 
 208   0.0000       2.425528        66.0020 
 209   0.0000       2.437326        66.3230 
 210   0.0000       2.459084        66.9151 
 211   0.0000       2.470126        67.2155 
 212   0.0000       2.488147        67.7059 
 213   0.0000       2.504086        68.1396 
 214   0.0000       2.510536        68.3152 
 215   0.0000       2.520280        68.5803 
 216   0.0000       2.531128        68.8755 
 217   0.0000       2.543933        69.2239 
 218   0.0000       2.551991        69.4432 
 219   0.0000       2.564727        69.7898 
 220   0.0000       2.591529        70.5191 
 221   0.0000       2.595755        70.6341 
 222   0.0000       2.602456        70.8164 
 223   0.0000       2.624368        71.4127 
 224   0.0000       2.638246        71.7903 
 225   0.0000       2.650356        72.1199 
 226   0.0000       2.674410        72.7744 
 227   0.0000       2.680192        72.9317 
 228   0.0000       2.692919        73.2780 
 229   0.0000       2.703020        73.5529 
 230   0.0000       2.710611        73.7595 
 231   0.0000       2.720303        74.0232 
 232   0.0000       2.723307        74.1050 
 233   0.0000       2.729754        74.2804 
 234   0.0000       2.736621        74.4672 
 235   0.0000       2.755572        74.9829 
 236   0.0000       2.763957        75.2111 
 237   0.0000       2.770657        75.3934 
 238   0.0000       2.790288        75.9276 
 239   0.0000       2.795814        76.0780 
 240   0.0000       2.797211        76.1160 
 241   0.0000       2.814827        76.5953 
 242   0.0000       2.830581        77.0240 
 243   0.0000       2.844385        77.3997 
 244   0.0000       2.862597        77.8952 
 245   0.0000       2.882736        78.4432 
 246   0.0000       2.898961        78.8848 
 247   0.0000       2.935739        79.8855 
 248   0.0000       2.963919        80.6523 
 249   0.0000       2.977834        81.0310 
 250   0.0000       3.008357        81.8616 
 251   0.0000       3.042935        82.8025 
 252   0.0000       3.059633        83.2569 
 253   0.0000       3.076301        83.7104 
 254   0.0000       3.090559        84.0984 
 255   0.0000       3.116187        84.7958 
 256   0.0000       3.131524        85.2131 
 257   0.0000       3.153562        85.8128 
 258   0.0000       3.181178        86.5642 
 259   0.0000       3.195574        86.9560 
 260   0.0000       3.208825        87.3166 
 261   0.0000       3.218326        87.5751 
 262   0.0000       3.230280        87.9004 
 263   0.0000       3.235446        88.0410 
 264   0.0000       3.254196        88.5512 
 265   0.0000       3.263624        88.8077 
 266   0.0000       3.276204        89.1501 
 267   0.0000       3.280100        89.2561 
 268   0.0000       3.298003        89.7432 
 269   0.0000       3.317553        90.2752 
 270   0.0000       3.321299        90.3771 
 271   0.0000       3.333614        90.7122 
 272   0.0000       3.338814        90.8537 
 273   0.0000       3.356447        91.3336 
 274   0.0000       3.374733        91.8311 
 275   0.0000       3.392136        92.3047 
 276   0.0000       3.392513        92.3150 
 277   0.0000       3.409975        92.7901 
 278   0.0000       3.424880        93.1957 
 279   0.0000       3.429478        93.3208 
 280   0.0000       3.447998        93.8248 
 281   0.0000       3.477138        94.6177 
 282   0.0000       3.480245        94.7023 
 283   0.0000       3.494063        95.0783 
 284   0.0000       3.514041        95.6219 
 285   0.0000       3.519025        95.7575 
 286   0.0000       3.530180        96.0611 
 287   0.0000       3.544136        96.4408 
 288   0.0000       3.555292        96.7444 
 289   0.0000       3.582043        97.4723 
 290   0.0000       3.591597        97.7323 
 291   0.0000       3.594624        97.8147 
 292   0.0000       3.610466        98.2458 
 293   0.0000       3.642681        99.1224 
 294   0.0000       3.668596        99.8276 
 295   0.0000       3.669736        99.8586 
 296   0.0000       3.675209       100.0075 
 297   0.0000       3.705604       100.8346 
 298   0.0000       3.710540       100.9689 
 299   0.0000       3.729540       101.4859 
 300   0.0000       3.748299       101.9964 
 301   0.0000       3.788674       103.0951 
 302   0.0000       3.831846       104.2698 
 303   0.0000       3.861390       105.0738 
 304   0.0000       3.881782       105.6287 
 305   0.0000       3.888671       105.8161 
 306   0.0000       3.908453       106.3544 
 307   0.0000       3.935247       107.0835 
 308   0.0000       3.951265       107.5194 
 309   0.0000       3.982351       108.3653 
 310   0.0000       4.025349       109.5353 
 311   0.0000       4.036449       109.8373 
 312   0.0000       4.058588       110.4398 
 313   0.0000       4.071877       110.8014 
 314   0.0000       4.103326       111.6572 
 315   0.0000       4.106437       111.7418 
 316   0.0000       4.111361       111.8758 
 317   0.0000       4.124022       112.2204 
 318   0.0000       4.156685       113.1092 
 319   0.0000       4.187755       113.9546 
 320   0.0000       4.226679       115.0138 
 321   0.0000       4.243447       115.4701 
 322   0.0000       4.248422       115.6054 
 323   0.0000       4.291387       116.7746 
 324   0.0000       4.311259       117.3153 
 325   0.0000       4.348219       118.3210 
 326   0.0000       4.360404       118.6526 
 327   0.0000       4.365144       118.7816 
 328   0.0000       4.383077       119.2696 
 329   0.0000       4.397253       119.6553 
 330   0.0000       4.423165       120.3604 
 331   0.0000       4.465008       121.4991 
 332   0.0000       4.480054       121.9085 
 333   0.0000       4.541158       123.5712 
 334   0.0000       4.556465       123.9877 
 335   0.0000       4.582813       124.7047 
 336   0.0000       4.611191       125.4769 
 337   0.0000       4.627975       125.9336 
 338   0.0000       4.660682       126.8236 
 339   0.0000       4.702632       127.9651 
 340   0.0000       4.720477       128.4507 
 341   0.0000       4.805322       130.7595 
 342   0.0000       4.808388       130.8429 
 343   0.0000       4.858914       132.2178 
 344   0.0000       4.897197       133.2595 
 345   0.0000       4.925063       134.0178 
 346   0.0000       4.949264       134.6763 
 347   0.0000       4.972037       135.2960 
 348   0.0000       5.051197       137.4501 
 349   0.0000       5.097006       138.6966 
 350   0.0000       5.114914       139.1839 
 351   0.0000       5.147609       140.0736 
 352   0.0000       5.189801       141.2217 
 353   0.0000       5.203711       141.6002 
 354   0.0000       5.225183       142.1845 
 355   0.0000       5.240786       142.6090 
 356   0.0000       5.270158       143.4083 
 357   0.0000       5.296806       144.1334 
 358   0.0000       5.329960       145.0356 
 359   0.0000       5.352166       145.6398 
 360   0.0000       5.365140       145.9929 
 361   0.0000       5.413656       147.3131 
 362   0.0000       5.439878       148.0266 
 363   0.0000       5.474728       148.9749 
 364   0.0000       5.478607       149.0805 
 365   0.0000       5.510837       149.9575 
 366   0.0000       5.534587       150.6038 
 367   0.0000       5.583388       151.9317 
 368   0.0000       5.618990       152.9005 
 369   0.0000       5.622112       152.9854 
 370   0.0000       5.760154       156.7418 
 371   0.0000       5.827527       158.5751 
 372   0.0000       5.838493       158.8735 
 373   0.0000       5.890195       160.2804 
 374   0.0000       6.038092       164.3048 
 375   0.0000       6.064649       165.0275 
 376   0.0000       6.149018       167.3233 
 377   0.0000       6.404380       174.2720 
 378   0.0000      22.486299       611.8833 
 379   0.0000      22.540469       613.3574 
 380   0.0000      22.556357       613.7897 
 381   0.0000      22.570712       614.1803 
 382   0.0000      22.596011       614.8687 
 383   0.0000      22.654876       616.4705 
 384   0.0000      23.259388       632.9201 
 385   0.0000      32.519758       884.9076 
 386   0.0000      32.687235       889.4649 
 387   0.0000      33.070200       899.8859 

                    ********************************
                    * MULLIKEN POPULATION ANALYSIS *
                    ********************************

-----------------------
MULLIKEN ATOMIC CHARGES
-----------------------
   0 C :   -0.225676
   1 C :   -0.143693
   2 C :   -0.104821
   3 H :    0.129919
   4 H :    0.114738
   5 N :   -0.350243
   6 H :    0.112193
   7 H :    0.124178
   8 C :    0.145438
   9 H :    0.271413
  10 N :   -0.131128
  11 H :    0.143896
  12 H :    0.101379
  13 N :   -0.411876
  14 C :   -0.143378
  15 C :   -0.235466
  16 H :    0.105120
  17 H :    0.143369
  18 C :   -0.082620
  19 H :    0.114007
  20 H :    0.108384
  21 H :    0.111358
  22 H :    0.103508
Sum of atomic charges:   -0.0000000

--------------------------------
MULLIKEN REDUCED ORBITAL CHARGES
--------------------------------
  0 C s       :     3.217900  s :     3.217900
      pz      :     0.991460  p :     2.910602
      px      :     0.929854
      py      :     0.989288
      dz2     :     0.023673  d :     0.091727
      dxz     :     0.016287
      dyz     :     0.011877
      dx2y2   :     0.015919
      dxy     :     0.023972
      f0      :     0.000825  f :     0.005447
      f+1     :     0.000328
      f-1     :     0.001105
      f+2     :     0.000780
      f-2     :     0.000451
      f+3     :     0.001055
      f-3     :     0.000902
  1 C s       :     3.216094  s :     3.216094
      pz      :     0.980963  p :     2.800902
      px      :     0.987075
      py      :     0.832864
      dz2     :     0.030853  d :     0.118423
      dxz     :     0.009177
      dyz     :     0.029940
      dx2y2   :     0.027522
      dxy     :     0.020931
      f0      :     0.001153  f :     0.008273
      f+1     :     0.000660
      f-1     :     0.001601
      f+2     :     0.000560
      f-2     :     0.001553
      f+3     :     0.001279
      f-3     :     0.001468
  2 C s       :     3.217369  s :     3.217369
      pz      :     1.030845  p :     2.766742
      px      :     0.877865
      py      :     0.858032
      dz2     :     0.008791  d :     0.112839
      dxz     :     0.020396
      dyz     :     0.035116
      dx2y2   :     0.022432
      dxy     :     0.026104
      f0      :     0.001161  f :     0.007871
      f+1     :     0.000482
      f-1     :     0.001131
      f+2     :     0.000477
      f-2     :     0.001401
      f+3     :     0.001475
      f-3     :     0.001745
  3 H s       :     0.849398  s :     0.849398
      pz      :     0.003898  p :     0.020682
      px      :     0.006804
      py      :     0.009980
  4 H s       :     0.864517  s :     0.864517
      pz      :     0.012268  p :     0.020745
      px      :     0.003982
      py      :     0.004495
  5 N s       :     3.435807  s :     3.435807
      pz      :     1.722027  p :     3.855158
      px      :     1.082296
      py      :     1.050836
      dz2     :     0.005024  d :     0.055329
      dxz     :     0.002217
      dyz     :     0.012044
      dx2y2   :     0.021539
      dxy     :     0.014506
      f0      :     0.000641  f :     0.003950
      f+1     :     0.000694
      f-1     :     0.000721
      f+2     :     0.000170
      f-2     :     0.000318
      f+3     :     0.000738
      f-3     :     0.000667
  6 H s       :     0.867526  s :     0.867526
      pz      :     0.010269  p :     0.020282
      px      :     0.003850
      py      :     0.006163
  7 H s       :     0.855654  s :     0.855654
      pz      :     0.008890  p :     0.020168
      px      :     0.004481
      py      :     0.006797
  8 C s       :     3.049962  s :     3.049962
      pz      :     0.860233  p :     2.555494
      px      :     0.847128
      py      :     0.848132
      dz2     :     0.004460  d :     0.229434
      dxz     :     0.049020
      dyz     :     0.058822
      dx2y2   :     0.074061
      dxy     :     0.043072
      f0      :     0.002740  f :     0.019672
      f+1     :     0.001515
      f-1     :     0.001414
      f+2     :     0.002572
      f-2     :     0.002895
      f+3     :     0.002634
      f-3     :     0.005902
  9 H s       :     0.692697  s :     0.692697
      pz      :     0.012131  p :     0.035890
      px      :     0.018697
      py      :     0.005062
 10 N s       :     3.416885  s :     3.416885
      pz      :     1.610775  p :     3.631719
      px      :     1.012190
      py      :     1.008753
      dz2     :     0.006805  d :     0.077783
      dxz     :     0.009791
      dyz     :     0.011941
      dx2y2   :     0.025392
      dxy     :     0.023855
      f0      :     0.000726  f :     0.004742
      f+1     :     0.000640
      f-1     :     0.000720
      f+2     :     0.000477
      f-2     :     0.000413
      f+3     :     0.000681
      f-3     :     0.001084
 11 H s       :     0.835934  s :     0.835934
      pz      :     0.003761  p :     0.020170
      px      :     0.012942
      py      :     0.003468
 12 H s       :     0.877956  s :     0.877956
      pz      :     0.012632  p :     0.020666
      px      :     0.003744
      py      :     0.004290
 13 N s       :     3.492992  s :     3.492992
      pz      :     1.355342  p :     3.857625
      px      :     1.521569
      py      :     0.980713
      dz2     :     0.005745  d :     0.057491
      dxz     :     0.007628
      dyz     :     0.012925
      dx2y2   :     0.012883
      dxy     :     0.018311
      f0      :     0.000594  f :     0.003768
      f+1     :     0.000200
      f-1     :     0.000468
      f+2     :     0.000291
      f-2     :     0.000542
      f+3     :     0.000719
      f-3     :     0.000955
 14 C s       :     3.213605  s :     3.213605
      pz      :     1.013317  p :     2.802097
      px      :     1.001534
      py      :     0.787245
      dz2     :     0.024487  d :     0.119143
      dxz     :     0.010751
      dyz     :     0.033676
      dx2y2   :     0.032161
      dxy     :     0.018067
      f0      :     0.001414  f :     0.008533
      f+1     :     0.000549
      f-1     :     0.001028
      f+2     :     0.001046
      f-2     :     0.001189
      f+3     :     0.001647
      f-3     :     0.001659
 15 C s       :     3.224035  s :     3.224035
      pz      :     0.983958  p :     2.915388
      px      :     0.940638
      py      :     0.990792
      dz2     :     0.026206  d :     0.090469
      dxz     :     0.015331
      dyz     :     0.007508
      dx2y2   :     0.021689
      dxy     :     0.019735
      f0      :     0.000570  f :     0.005574
      f+1     :     0.001019
      f-1     :     0.000747
      f+2     :     0.000690
      f-2     :     0.000609
      f+3     :     0.000923
      f-3     :     0.001016
 16 H s       :     0.874544  s :     0.874544
      pz      :     0.012705  p :     0.020336
      px      :     0.003645
      py      :     0.003986
 17 H s       :     0.836449  s :     0.836449
      pz      :     0.004616  p :     0.020182
      px      :     0.012473
      py      :     0.003092
 18 C s       :     3.197121  s :     3.197121
      pz      :     1.006951  p :     2.769964
      px      :     0.936442
      py      :     0.826571
      dz2     :     0.013884  d :     0.108094
      dxz     :     0.013554
      dyz     :     0.030726
      dx2y2   :     0.016558
      dxy     :     0.033372
      f0      :     0.000801  f :     0.007441
      f+1     :     0.000780
      f-1     :     0.000782
      f+2     :     0.001166
      f-2     :     0.000685
      f+3     :     0.001324
      f-3     :     0.001902
 19 H s       :     0.865179  s :     0.865179
      pz      :     0.003777  p :     0.020814
      px      :     0.005263
      py      :     0.011774
 20 H s       :     0.871212  s :     0.871212
      pz      :     0.012338  p :     0.020403
      px      :     0.003879
      py      :     0.004186
 21 H s       :     0.868118  s :     0.868118
      pz      :     0.006912  p :     0.020524
      px      :     0.007756
      py      :     0.005856
 22 H s       :     0.876265  s :     0.876265
      pz      :     0.011089  p :     0.020227
      px      :     0.003733
      py      :     0.005405


                     *******************************
                     * LOEWDIN POPULATION ANALYSIS *
                     *******************************

----------------------
LOEWDIN ATOMIC CHARGES
----------------------
   0 C :   -0.263282
   1 C :   -0.272577
   2 C :   -0.294562
   3 H :    0.144776
   4 H :    0.143884
   5 N :    0.068255
   6 H :    0.128441
   7 H :    0.134860
   8 C :   -0.356233
   9 H :    0.198639
  10 N :    0.158716
  11 H :    0.142306
  12 H :    0.133790
  13 N :   -0.019343
  14 C :   -0.267184
  15 C :   -0.276337
  16 H :    0.135896
  17 H :    0.142115
  18 C :   -0.319768
  19 H :    0.138135
  20 H :    0.140402
  21 H :    0.129562
  22 H :    0.129508

-------------------------------
LOEWDIN REDUCED ORBITAL CHARGES
-------------------------------
  0 C s       :     2.789529  s :     2.789529
      pz      :     1.028918  p :     3.054550
      px      :     1.007723
      py      :     1.017909
      dz2     :     0.098470  d :     0.381776
      dxz     :     0.058642
      dyz     :     0.056160
      dx2y2   :     0.069550
      dxy     :     0.098952
      f0      :     0.004283  f :     0.037428
      f+1     :     0.003512
      f-1     :     0.006181
      f+2     :     0.007188
      f-2     :     0.004633
      f+3     :     0.006435
      f-3     :     0.005196
  1 C s       :     2.781906  s :     2.781906
      pz      :     1.035886  p :     2.958733
      px      :     0.988721
      py      :     0.934126
      dz2     :     0.119033  d :     0.476067
      dxz     :     0.035548
      dyz     :     0.124784
      dx2y2   :     0.107654
      dxy     :     0.089048
      f0      :     0.006269  f :     0.055871
      f+1     :     0.005373
      f-1     :     0.008951
      f+2     :     0.005119
      f-2     :     0.012649
      f+3     :     0.008547
      f-3     :     0.008963
  2 C s       :     2.791084  s :     2.791084
      pz      :     1.047652  p :     2.976361
      px      :     0.995077
      py      :     0.933632
      dz2     :     0.051864  d :     0.474259
      dxz     :     0.071774
      dyz     :     0.145623
      dx2y2   :     0.091060
      dxy     :     0.113938
      f0      :     0.006924  f :     0.052858
      f+1     :     0.004946
      f-1     :     0.005151
      f+2     :     0.004612
      f-2     :     0.010045
      f+3     :     0.010083
      f-3     :     0.011097
  3 H s       :     0.798938  s :     0.798938
      pz      :     0.012278  p :     0.056286
      px      :     0.017761
      py      :     0.026247
  4 H s       :     0.799936  s :     0.799936
      pz      :     0.030381  p :     0.056180
      px      :     0.011827
      py      :     0.013972
  5 N s       :     2.945363  s :     2.945363
      pz      :     1.522552  p :     3.780868
      px      :     1.119696
      py      :     1.138620
      dz2     :     0.012011  d :     0.192709
      dxz     :     0.009900
      dyz     :     0.035863
      dx2y2   :     0.079052
      dxy     :     0.055882
      f0      :     0.001499  f :     0.012804
      f+1     :     0.001479
      f-1     :     0.001848
      f+2     :     0.000838
      f-2     :     0.001777
      f+3     :     0.002094
      f-3     :     0.003270
  6 H s       :     0.815510  s :     0.815510
      pz      :     0.028815  p :     0.056050
      px      :     0.011350
      py      :     0.015885
  7 H s       :     0.809270  s :     0.809270
      pz      :     0.025853  p :     0.055869
      px      :     0.012589
      py      :     0.017427
  8 C s       :     2.727265  s :     2.727265
      pz      :     0.830724  p :     2.688966
      px      :     0.924753
      py      :     0.933490
      dz2     :     0.052281  d :     0.831765
      dxz     :     0.147238
      dyz     :     0.168955
      dx2y2   :     0.256768
      dxy     :     0.206522
      f0      :     0.006554  f :     0.108236
      f+1     :     0.007616
      f-1     :     0.007622
      f+2     :     0.014893
      f-2     :     0.018608
      f+3     :     0.017758
      f-3     :     0.035186
  9 H s       :     0.697588  s :     0.697588
      pz      :     0.033540  p :     0.103773
      px      :     0.055911
      py      :     0.014322
 10 N s       :     2.882413  s :     2.882413
      pz      :     1.423394  p :     3.666320
      px      :     1.120585
      py      :     1.122342
      dz2     :     0.020971  d :     0.273942
      dxz     :     0.034448
      dyz     :     0.038577
      dx2y2   :     0.095041
      dxy     :     0.084905
      f0      :     0.002119  f :     0.018609
      f+1     :     0.001846
      f-1     :     0.002168
      f+2     :     0.002387
      f-2     :     0.001834
      f+3     :     0.002477
      f-3     :     0.005778
 11 H s       :     0.801974  s :     0.801974
      pz      :     0.011985  p :     0.055720
      px      :     0.033667
      py      :     0.010067
 12 H s       :     0.810215  s :     0.810215
      pz      :     0.031592  p :     0.055995
      px      :     0.012069
      py      :     0.012334
 13 N s       :     3.045057  s :     3.045057
      pz      :     1.224761  p :     3.768998
      px      :     1.424442
      py      :     1.119795
      dz2     :     0.016543  d :     0.189669
      dxz     :     0.010880
      dyz     :     0.042743
      dx2y2   :     0.053751
      dxy     :     0.065752
      f0      :     0.001399  f :     0.015619
      f+1     :     0.000693
      f-1     :     0.002186
      f+2     :     0.000933
      f-2     :     0.002404
      f+3     :     0.003510
      f-3     :     0.004495
 14 C s       :     2.781131  s :     2.781131
      pz      :     1.045358  p :     2.956170
      px      :     1.007414
      py      :     0.903398
      dz2     :     0.102600  d :     0.473780
      dxz     :     0.043826
      dyz     :     0.119378
      dx2y2   :     0.125042
      dxy     :     0.082933
      f0      :     0.007411  f :     0.056102
      f+1     :     0.003615
      f-1     :     0.007035
      f+2     :     0.008071
      f-2     :     0.009539
      f+3     :     0.010422
      f-3     :     0.010011
 15 C s       :     2.789708  s :     2.789708
      pz      :     1.024297  p :     3.062264
      px      :     1.028644
      py      :     1.009323
      dz2     :     0.107743  d :     0.386374
      dxz     :     0.068614
      dyz     :     0.036942
      dx2y2   :     0.090596
      dxy     :     0.082480
      f0      :     0.002962  f :     0.037991
      f+1     :     0.006443
      f-1     :     0.005156
      f+2     :     0.006102
      f-2     :     0.005664
      f+3     :     0.005941
      f-3     :     0.005724
 16 H s       :     0.808461  s :     0.808461
      pz      :     0.032957  p :     0.055643
      px      :     0.011255
      py      :     0.011431
 17 H s       :     0.802299  s :     0.802299
      pz      :     0.015034  p :     0.055585
      px      :     0.031704
      py      :     0.008848
 18 C s       :     2.794265  s :     2.794265
      pz      :     1.041459  p :     2.991069
      px      :     1.021806
      py      :     0.927804
      dz2     :     0.064002  d :     0.482079
      dxz     :     0.070590
      dyz     :     0.120619
      dx2y2   :     0.091131
      dxy     :     0.135736
      f0      :     0.005316  f :     0.052354
      f+1     :     0.005709
      f-1     :     0.006116
      f+2     :     0.006373
      f-2     :     0.005902
      f+3     :     0.010287
      f-3     :     0.012651
 19 H s       :     0.805545  s :     0.805545
      pz      :     0.011781  p :     0.056320
      px      :     0.014846
      py      :     0.029693
 20 H s       :     0.803762  s :     0.803762
      pz      :     0.030262  p :     0.055836
      px      :     0.012142
      py      :     0.013432
 21 H s       :     0.815499  s :     0.815499
      pz      :     0.020100  p :     0.054939
      px      :     0.020123
      py      :     0.014716
 22 H s       :     0.815198  s :     0.815198
      pz      :     0.029691  p :     0.055295
      px      :     0.011520
      py      :     0.014084


                      *****************************
                      * MAYER POPULATION ANALYSIS *
                      *****************************

  NA   - Mulliken gross atomic population
  ZA   - Total nuclear charge
  QA   - Mulliken gross atomic charge
  VA   - Mayer's total valence
  BVA  - Mayer's bonded valence
  FA   - Mayer's free valence

  ATOM       NA         ZA         QA         VA         BVA        FA
  0 C      6.2257     6.0000    -0.2257     3.9366     3.9366    -0.0000
  1 C      6.1437     6.0000    -0.1437     3.8912     3.8912    -0.0000
  2 C      6.1048     6.0000    -0.1048     3.9145     3.9145    -0.0000
  3 H      0.8701     1.0000     0.1299     0.9702     0.9702    -0.0000
  4 H      0.8853     1.0000     0.1147     0.9790     0.9790    -0.0000
  5 N      7.3502     7.0000    -0.3502     3.0270     3.0270    -0.0000
  6 H      0.8878     1.0000     0.1122     0.9627     0.9627     0.0000
  7 H      0.8758     1.0000     0.1242     0.9611     0.9611    -0.0000
[...]
      px      :     0.010886
      py      :     0.004129
 12 H s       :     0.865536  s :     0.865536
      pz      :     0.012509  p :     0.020990
      px      :     0.004589
      py      :     0.003893
 13 N s       :     3.522303  s :     3.522303
      pz      :     1.385846  p :     3.852547
      px      :     1.474992
      py      :     0.991708
      dz2     :     0.006487  d :     0.059008
      dxz     :     0.008537
      dyz     :     0.011169
      dx2y2   :     0.013672
      dxy     :     0.019143
      f0      :     0.000624  f :     0.003651
      f+1     :     0.000244
      f-1     :     0.000462
      f+2     :     0.000200
      f-2     :     0.000597
      f+3     :     0.000698
      f-3     :     0.000826
 14 C s       :     3.230815  s :     3.230815
      pz      :     1.016573  p :     2.800968
      px      :     0.977212
      py      :     0.807183
      dz2     :     0.014134  d :     0.115027
      dxz     :     0.026839
      dyz     :     0.027197
      dx2y2   :     0.027614
      dxy     :     0.019243
      f0      :     0.000548  f :     0.007990
      f+1     :     0.001000
      f-1     :     0.001246
      f+2     :     0.000857
      f-2     :     0.001454
      f+3     :     0.001401
      f-3     :     0.001484
 15 C s       :     3.201408  s :     3.201408
      pz      :     0.987807  p :     2.913264
      px      :     0.930896
      py      :     0.994561
      dz2     :     0.024054  d :     0.090938
      dxz     :     0.018496
      dyz     :     0.009186
      dx2y2   :     0.017543
      dxy     :     0.021660
      f0      :     0.000496  f :     0.005539
      f+1     :     0.001332
      f-1     :     0.000438
      f+2     :     0.000517
      f-2     :     0.000983
      f+3     :     0.000960
      f-3     :     0.000813
 16 H s       :     0.861242  s :     0.861242
      pz      :     0.009656  p :     0.020872
      px      :     0.006147
      py      :     0.005069
 17 H s       :     0.851343  s :     0.851343
      pz      :     0.008270  p :     0.021263
      px      :     0.009314
      py      :     0.003679
 18 C s       :     3.187279  s :     3.187279
      pz      :     0.984100  p :     2.777753
      px      :     0.945282
      py      :     0.848372
      dz2     :     0.017919  d :     0.110856
      dxz     :     0.012250
      dyz     :     0.030737
      dx2y2   :     0.014842
      dxy     :     0.035108
      f0      :     0.000965  f :     0.007646
      f+1     :     0.001014
      f-1     :     0.000607
      f+2     :     0.001040
      f-2     :     0.001018
      f+3     :     0.001202
      f-3     :     0.001800
 19 H s       :     0.860766  s :     0.860766
      pz      :     0.004263  p :     0.021545
      px      :     0.005475
      py      :     0.011807
 20 H s       :     0.874563  s :     0.874563
      pz      :     0.012444  p :     0.021605
      px      :     0.004628
      py      :     0.004534
 21 H s       :     0.865254  s :     0.865254
      pz      :     0.005171  p :     0.020679
      px      :     0.008736
      py      :     0.006773
 22 H s       :     0.890744  s :     0.890744
      pz      :     0.011418  p :     0.021096
      px      :     0.004382
      py      :     0.005297


                     *******************************
                     * LOEWDIN POPULATION ANALYSIS *
                     *******************************

----------------------
LOEWDIN ATOMIC CHARGES
----------------------
   0 C :   -0.259849
   1 C :   -0.259565
   2 C :   -0.288769
   3 H :    0.145503
   4 H :    0.143215
   5 N :    0.085928
   6 H :    0.127061
   7 H :    0.136439
   8 C :   -0.417292
   9 H :    0.189195
  10 N :    0.186446
  11 H :    0.139267
  12 H :    0.132819
  13 N :   -0.020173
  14 C :   -0.254726
  15 C :   -0.267200
  16 H :    0.133017
  17 H :    0.138320
  18 C :   -0.322726
  19 H :    0.141009
  20 H :    0.138774
  21 H :    0.127466
  22 H :    0.125839

-------------------------------
LOEWDIN REDUCED ORBITAL CHARGES
-------------------------------
  0 C s       :     2.772205  s :     2.772205
      pz      :     1.029379  p :     3.056313
      px      :     1.015895
      py      :     1.011039
      dz2     :     0.111370  d :     0.391396
      dxz     :     0.057439
      dyz     :     0.041207
      dx2y2   :     0.069199
      dxy     :     0.112182
      f0      :     0.004494  f :     0.039935
      f+1     :     0.005020
      f-1     :     0.003955
      f+2     :     0.007262
      f-2     :     0.005609
      f+3     :     0.006556
      f-3     :     0.007038
  1 C s       :     2.771863  s :     2.771863
      pz      :     1.045688  p :     2.953421
      px      :     0.963905
      py      :     0.943828
      dz2     :     0.088310  d :     0.479773
      dxz     :     0.087476
      dyz     :     0.088360
      dx2y2   :     0.107139
      dxy     :     0.108489
      f0      :     0.007249  f :     0.054508
      f+1     :     0.003046
      f-1     :     0.006918
      f+2     :     0.005100
      f-2     :     0.010895
      f+3     :     0.008857
      f-3     :     0.012442
  2 C s       :     2.775886  s :     2.775886
      pz      :     1.037686  p :     2.972124
      px      :     1.000484
      py      :     0.933954
      dz2     :     0.112717  d :     0.484353
      dxz     :     0.074025
      dyz     :     0.086415
      dx2y2   :     0.088117
      dxy     :     0.123079
      f0      :     0.007094  f :     0.056406
      f+1     :     0.005886
      f-1     :     0.004121
      f+2     :     0.007499
      f-2     :     0.011285
      f+3     :     0.009604
      f-3     :     0.010916
  3 H s       :     0.795598  s :     0.795598
      pz      :     0.014293  p :     0.058899
      px      :     0.019319
      py      :     0.025288
  4 H s       :     0.797753  s :     0.797753
      pz      :     0.033860  p :     0.059032
      px      :     0.012455
      py      :     0.012717
  5 N s       :     2.934937  s :     2.934937
      pz      :     1.493652  p :     3.750345
      px      :     1.117119
      py      :     1.139574
      dz2     :     0.020067  d :     0.213788
      dxz     :     0.011700
      dyz     :     0.041840
      dx2y2   :     0.085594
      dxy     :     0.054587
      f0      :     0.001136  f :     0.015002
      f+1     :     0.001421
      f-1     :     0.002259
      f+2     :     0.001568
      f-2     :     0.002285
      f+3     :     0.002626
      f-3     :     0.003707
  6 H s       :     0.814902  s :     0.814902
      pz      :     0.034962  p :     0.058036
      px      :     0.011903
      py      :     0.011172
  7 H s       :     0.805244  s :     0.805244
      pz      :     0.017224  p :     0.058316
      px      :     0.016043
      py      :     0.025049
  8 C s       :     2.704335  s :     2.704335
      pz      :     0.813282  p :     2.695675
      px      :     0.945943
      py      :     0.936450
      dz2     :     0.059873  d :     0.894970
      dxz     :     0.180320
      dyz     :     0.166586
      dx2y2   :     0.270669
      dxy     :     0.217522
      f0      :     0.007460  f :     0.122312
      f+1     :     0.008542
      f-1     :     0.008315
      f+2     :     0.018067
      f-2     :     0.019289
      f+3     :     0.021729
      f-3     :     0.038910
  9 H s       :     0.702912  s :     0.702912
      pz      :     0.036171  p :     0.107894
      px      :     0.056173
      py      :     0.015549
 10 N s       :     2.867590  s :     2.867590
      pz      :     1.391877  p :     3.641492
      px      :     1.138143
      py      :     1.111472
      dz2     :     0.020427  d :     0.284816
      dxz     :     0.041011
      dyz     :     0.037267
      dx2y2   :     0.092442
      dxy     :     0.093670
      f0      :     0.002139  f :     0.019656
      f+1     :     0.002126
      f-1     :     0.001694
      f+2     :     0.002087
      f-2     :     0.002607
      f+3     :     0.002907
      f-3     :     0.006096
 11 H s       :     0.802646  s :     0.802646
      pz      :     0.018816  p :     0.058088
      px      :     0.027357
      py      :     0.011915
 12 H s       :     0.809188  s :     0.809188
      pz      :     0.033387  p :     0.057993
      px      :     0.012915
      py      :     0.011691
 13 N s       :     3.046867  s :     3.046867
      pz      :     1.240053  p :     3.761479
      px      :     1.409777
      py      :     1.111648
      dz2     :     0.017956  d :     0.194950
      dxz     :     0.012538
      dyz     :     0.039704
      dx2y2   :     0.055744
      dxy     :     0.069008
      f0      :     0.001447  f :     0.016878
      f+1     :     0.000836
      f-1     :     0.002055
      f+2     :     0.000776
      f-2     :     0.002744
      f+3     :     0.004003
      f-3     :     0.005018
 14 C s       :     2.771722  s :     2.771722
      pz      :     1.036200  p :     2.954602
      px      :     1.004658
      py      :     0.913744
      dz2     :     0.054938  d :     0.473707
      dxz     :     0.111401
      dyz     :     0.107409
      dx2y2   :     0.103018
      dxy     :     0.096940
      f0      :     0.004481  f :     0.054695
      f+1     :     0.005650
      f-1     :     0.010166
      f+2     :     0.006448
      f-2     :     0.006972
      f+3     :     0.010488
      f-3     :     0.010491
 15 C s       :     2.773772  s :     2.773772
      pz      :     1.025925  p :     3.061381
      px      :     1.025603
      py      :     1.009853
      dz2     :     0.102185  d :     0.392383
      dxz     :     0.084520
      dyz     :     0.038721
      dx2y2   :     0.077989
      dxy     :     0.088968
      f0      :     0.003363  f :     0.039664
      f+1     :     0.008089
      f-1     :     0.004512
      f+2     :     0.004832
      f-2     :     0.007092
      f+3     :     0.006708
      f-3     :     0.005067
 16 H s       :     0.809029  s :     0.809029
      pz      :     0.026976  p :     0.057954
      px      :     0.016351
      py      :     0.014627
 17 H s       :     0.803438  s :     0.803438
      pz      :     0.024103  p :     0.058242
      px      :     0.023468
      py      :     0.010671
 18 C s       :     2.779619  s :     2.779619
      pz      :     1.037435  p :     2.991887
      px      :     1.019827
      py      :     0.934624
      dz2     :     0.081937  d :     0.496035
      dxz     :     0.071031
      dyz     :     0.112177
      dx2y2   :     0.081633
      dxy     :     0.149256
      f0      :     0.006195  f :     0.055185
      f+1     :     0.006481
      f-1     :     0.006185
      f+2     :     0.006927
      f-2     :     0.007113
      f+3     :     0.009323
      f-3     :     0.012961
 19 H s       :     0.799985  s :     0.799985
      pz      :     0.012934  p :     0.059006
      px      :     0.016086
      py      :     0.029986
 20 H s       :     0.802493  s :     0.802493
      pz      :     0.029784  p :     0.058734
      px      :     0.014323
      py      :     0.014626
 21 H s       :     0.815716  s :     0.815716
      pz      :     0.016337  p :     0.056817
      px      :     0.023257
      py      :     0.017223
 22 H s       :     0.816830  s :     0.816830
      pz      :     0.029552  p :     0.057331
      px      :     0.013790
      py      :     0.013989


                      *****************************
                      * MAYER POPULATION ANALYSIS *
                      *****************************

  NA   - Mulliken gross atomic population
  ZA   - Total nuclear charge
  QA   - Mulliken gross atomic charge
  VA   - Mayer's total valence
  BVA  - Mayer's bonded valence
  FA   - Mayer's free valence

  ATOM       NA         ZA         QA         VA         BVA        FA
  0 C      6.2299     6.0000    -0.2299     3.9628     3.9628    -0.0000
  1 C      6.1505     6.0000    -0.1505     3.9242     3.9242    -0.0000
  2 C      6.0848     6.0000    -0.0848     3.9094     3.9094    -0.0000
  3 H      0.8678     1.0000     0.1322     0.9701     0.9701     0.0000
  4 H      0.8830     1.0000     0.1170     0.9819     0.9819    -0.0000
  5 N      7.3511     7.0000    -0.3511     3.0266     3.0266    -0.0000
  6 H      0.8970     1.0000     0.1030     0.9689     0.9689    -0.0000
  7 H      0.8696     1.0000     0.1304     0.9645     0.9645    -0.0000
  8 C      5.8161     6.0000     0.1839     4.4733     4.4733    -0.0000
  9 H      0.7497     1.0000     0.2503     0.9572     0.9572     0.0000
 10 N      7.1269     7.0000    -0.1269     3.0818     3.0818    -0.0000
 11 H      0.8689     1.0000     0.1311     0.9526     0.9526    -0.0000
 12 H      0.8865     1.0000     0.1135     0.9628     0.9628    -0.0000
 13 N      7.4375     7.0000    -0.4375     2.9565     2.9565    -0.0000
 14 C      6.1548     6.0000    -0.1548     3.9018     3.9018    -0.0000
 15 C      6.2111     6.0000    -0.2111     3.9257     3.9257    -0.0000
 16 H      0.8821     1.0000     0.1179     0.9629     0.9629    -0.0000
 17 H      0.8726     1.0000     0.1274     0.9558     0.9558    -0.0000
 18 C      6.0835     6.0000    -0.0835     3.9780     3.9780    -0.0000
 19 H      0.8823     1.0000     0.1177     0.9724     0.9724    -0.0000
 20 H      0.8962     1.0000     0.1038     0.9798     0.9798    -0.0000
 21 H      0.8859     1.0000     0.1141     0.9578     0.9578    -0.0000
 22 H      0.9118     1.0000     0.0882     0.9698     0.9698    -0.0000

  Mayer bond orders larger than 0.100000
B(  0-C ,  1-C ) :   1.0121 B(  0-C ,  2-C ) :   0.9820 B(  0-C ,  3-H ) :   0.9691 
B(  0-C ,  4-H ) :   0.9706 B(  1-C , 10-N ) :   0.9269 B(  1-C , 11-H ) :   0.9611 
B(  1-C , 12-H ) :   0.9603 B(  2-C ,  5-N ) :   0.9525 B(  2-C ,  6-H ) :   0.9729 
B(  2-C ,  7-H ) :   0.9639 B(  5-N ,  8-C ) :   1.1742 B(  5-N ,  9-H ) :   0.9019 
B(  8-C , 10-N ) :   1.2288 B(  8-C , 13-N ) :   1.8908 B( 10-N , 14-C ) :   0.9171 
B( 13-N , 18-C ) :   1.0097 B( 14-C , 15-C ) :   1.0006 B( 14-C , 16-H ) :   0.9633 
B( 14-C , 17-H ) :   0.9630 B( 15-C , 18-C ) :   0.9730 B( 15-C , 19-H ) :   0.9666 
B( 15-C , 20-H ) :   0.9732 B( 18-C , 21-H ) :   0.9730 B( 18-C , 22-H ) :   0.9692 


-------
TIMINGS
-------

Total SCF time: 0 days 0 hours 4 min 53 sec 

Total time                  ....     293.046 sec
Sum of individual times     ....     292.360 sec  ( 99.8%)

Fock matrix formation       ....     290.467 sec  ( 99.1%)
  XC integration            ....       3.957 sec  (  1.4% of F)
    Basis function eval.    ....       0.866 sec  ( 21.9% of XC)
    Density eval.           ....       1.018 sec  ( 25.7% of XC)
    XC-Functional eval.     ....       0.306 sec  (  7.7% of XC)
    XC-Potential eval.      ....       1.670 sec  ( 42.2% of XC)
Diagonalization             ....       0.071 sec  (  0.0%)
Density matrix formation    ....       0.033 sec  (  0.0%)
Population analysis         ....       0.050 sec  (  0.0%)
Initial guess               ....       0.067 sec  (  0.0%)
Orbital Transformation      ....       0.000 sec  (  0.0%)
Orbital Orthonormalization  ....       0.053 sec  (  0.0%)
DIIS solution               ....       0.019 sec  (  0.0%)
SOSCF solution              ....       0.249 sec  (  0.1%)
Grid generation             ....       1.404 sec  (  0.5%)


-------------------------------------------------------------------------------
                          DFT DISPERSION CORRECTION                            
                                                                               
                              DFTD3 V3.1  Rev 1                                
                              USING zero damping                               
-------------------------------------------------------------------------------
The omegaB97X-D3 functional is recognized. Fit by Chai et al.
Active option DFTDOPT                   ...         3   

molecular C6(AA) [au] = 4305.054602 


            DFT-D V3
 parameters
 s6 scaling factor         :     1.0000 
 rs6 scaling factor        :     1.2810 
 s8 scaling factor         :     1.0000 
 rs8 scaling factor        :     1.0940 
 Damping factor alpha6     :    14.0000 
 Damping factor alpha8     :    16.0000 
 ad hoc parameters k1-k3   :    16.0000     1.3333    -4.0000 

 Edisp/kcal,au: -4.918338113794  -0.007837869853 
 E6   /kcal   :  -2.089337427 
 E8   /kcal   :  -2.829000686 
 % E8         :  57.519442970 

-------------------------   ----------------
Dispersion correction           -0.007837870
-------------------------   ----------------


-------------------------   --------------------
FINAL SINGLE POINT ENERGY      -438.879322175366
-------------------------   --------------------

                                *** OPTIMIZATION RUN DONE ***

                            ***************************************
                            *     ORCA property calculations      *
                            ***************************************

                                    ---------------------
                                    Active property flags
                                    ---------------------
   (+) Dipole Moment


------------------------------------------------------------------------------
                       ORCA ELECTRIC PROPERTIES CALCULATION
------------------------------------------------------------------------------

Dipole Moment Calculation                       ... on
Quadrupole Moment Calculation                   ... off
Polarizability Calculation                      ... off
GBWName                                         ... TBD.gbw
Electron density file                           ... TBD.scfp
The origin for moment calculation is the CENTER OF MASS  = ( 5.820808,  1.306257 -0.453428)

-------------
DIPOLE MOMENT
-------------
                                X             Y             Z
Electronic contribution:     -3.43920       0.42184       1.19504
Nuclear contribution   :      4.93798       0.45670      -1.64610
                        -----------------------------------------
Total Dipole Moment    :      1.49878       0.87854      -0.45106
                        -----------------------------------------
Magnitude (a.u.)       :      1.79489
Magnitude (Debye)      :      4.56225



--------------------
Rotational spectrum 
--------------------
 
Rotational constants in cm-1:     0.090112     0.038134     0.028474 
Rotational constants in MHz :  2701.488360  1143.218328   853.633751 

 Dipole components along the rotational axes: 
x,y,z [a.u.] :     0.992547     1.442215    -0.395604 
x,y,z [Debye]:     2.522853     3.665819    -1.005545 

 
--------------------------------------------------------------------------
[[44264,1],1]: A high-performance Open MPI point-to-point messaging module
was unable to find any relevant network interfaces:

Module: OpenFabrics (openib)
  Host: compute-1-5

Another transport will be used instead, although this may result in
lower performance.

NOTE: You can disable this warning by setting the MCA parameter
btl_base_warn_component_unused to 0.
--------------------------------------------------------------------------
[compute-1-5.local:19772] 3 more processes have sent help message help-mpi-btl-base.txt / btl:no-nics
[compute-1-5.local:19772] Set MCA parameter "orte_base_help_aggregate" to 0 to see all help / error messages

Timings for individual modules:

Sum of individual times         ...    12994.101 sec (= 216.568 min)
GTO integral calculation        ...       85.846 sec (=   1.431 min)   0.7 %
SCF iterations                  ...     7531.749 sec (= 125.529 min)  58.0 %
SCF Gradient evaluation         ...     5371.097 sec (=  89.518 min)  41.3 %
Geometry relaxation             ...        5.408 sec (=   0.090 min)   0.0 %
                             ****ORCA TERMINATED NORMALLY****
TOTAL RUN TIME: 0 days 3 hours 36 minutes 44 seconds 370 msec
