Warning: no access to tty (Bad file descriptor).
Thus no job control in this shell.

                                 *****************
                                 * O   R   C   A *
                                 *****************

           --- An Ab Initio, DFT and Semiempirical electronic structure package ---

                  #######################################################
                  #                        -***-                        #
                  #          Department of theory and spectroscopy      #
                  #               Directorship: Frank Neese             #
                  #        Max Planck Institute fuer Kohlenforschung    #
                  #                Kaiser Wilhelm Platz 1               #
                  #                 D-45470 Muelheim/Ruhr               #
                  #                      Germany                        #
                  #                                                     #
                  #                  All rights reserved                #
                  #                        -***-                        #
                  #######################################################


                         Program Version 4.2.1 -  RELEASE  -


 With contributions from (in alphabetic order):
   Daniel Aravena         : Magnetic Suceptibility
   Michael Atanasov       : Ab Initio Ligand Field Theory (pilot matlab implementation)
   Alexander A. Auer      : GIAO ZORA, VPT2
   Ute Becker             : Parallelization
   Giovanni Bistoni       : ED, misc. LED, open-shell LED, HFLD
   Martin Brehm           : Molecular dynamics
   Dmytro Bykov           : SCF Hessian
   Vijay G. Chilkuri      : MRCI spin determinant printing, contributions to CSF-ICE
   Dipayan Datta          : RHF DLPNO-CCSD density
   Achintya Kumar Dutta   : EOM-CC, STEOM-CC
   Dmitry Ganyushin       : Spin-Orbit,Spin-Spin,Magnetic field MRCI
   Miquel Garcia          : C-PCM Hessian, Gaussian charge scheme
   Yang Guo               : DLPNO-NEVPT2, CIM, IAO-localization
   Andreas Hansen         : Spin unrestricted coupled pair/coupled cluster methods
   Benjamin Helmich-Paris : CASSCF linear response (MC-RPA)
   Lee Huntington         : MR-EOM, pCC
   Robert Izsak           : Overlap fitted RIJCOSX, COSX-SCS-MP3, EOM
   Christian Kollmar      : KDIIS, OOCD, Brueckner-CCSD(T), CCSD density
   Simone Kossmann        : Meta GGA functionals, TD-DFT gradient, OOMP2, MP2 Hessian
   Martin Krupicka        : AUTO-CI
   Lucas Lang             : DCDCAS
   Dagmar Lenk            : GEPOL surface, SMD
   Dimitrios Liakos       : Extrapolation schemes; Compound Job, initial MDCI parallelization
   Dimitrios Manganas     : Further ROCIS development; embedding schemes
   Dimitrios Pantazis     : SARC Basis sets
   Taras Petrenko         : DFT Hessian,TD-DFT gradient, ASA, ECA, R-Raman, ABS, FL, XAS/XES, NRVS
   Peter Pinski           : DLPNO-MP2, DLPNO-MP2 Gradient
   Christoph Reimann      : Effective Core Potentials
   Marius Retegan         : Local ZFS, SOC
   Christoph Riplinger    : Optimizer, TS searches, QM/MM, DLPNO-CCSD(T), (RO)-DLPNO pert. Triples
   Tobias Risthaus        : Range-separated hybrids, TD-DFT gradient, RPA, STAB
   Michael Roemelt        : Original ROCIS implementation
   Masaaki Saitow         : Open-shell DLPNO-CCSD energy and density
   Barbara Sandhoefer     : DKH picture change effects
   Avijit Sen             : IP-ROCIS
   Kantharuban Sivalingam : CASSCF convergence, NEVPT2, FIC-MRCI
   Bernardo de Souza      : ESD, SOC TD-DFT
   Georgi Stoychev        : AutoAux, RI-MP2 NMR
   Willem Van den Heuvel  : Paramagnetic NMR
   Boris Wezisla          : Elementary symmetry handling
   Frank Wennmohs         : Technical directorship


 We gratefully acknowledge several colleagues who have allowed us to
 interface, adapt or use parts of their codes:
   Stefan Grimme, W. Hujo, H. Kruse,             : VdW corrections, initial TS optimization,
                  C. Bannwarth                     DFT functionals, gCP, sTDA/sTD-DF
   Ed Valeev, F. Pavosevic, A. Kumar             : LibInt (2-el integral package), F12 methods
   Garnet Chan, S. Sharma, J. Yang, R. Olivares  : DMRG
   Ulf Ekstrom                                   : XCFun DFT Library
   Mihaly Kallay                                 : mrcc  (arbitrary order and MRCC methods)
   Andreas Klamt, Michael Diedenhofen            : otool_cosmo (COSMO solvation model)
   Jiri Pittner, Ondrej Demel                    : Mk-CCSD
   Frank Weinhold                                : gennbo (NPA and NBO analysis)
   Christopher J. Cramer and Donald G. Truhlar   : smd solvation model
   Lars Goerigk                                  : TD-DFT with DH, B97 family of functionals
   V. Asgeirsson, H. Jonsson                     : NEB implementation
   FAccTs GmbH                                   : IRC, NEB, NEB-TS, Multilevel, MM, QM/MM, CI optimization
   S Lehtola, MJT Oliveira, MAL Marques          : LibXC Library


 Your calculation uses the libint2 library for the computation of 2-el integrals
 For citations please refer to: http://libint.valeyev.net

 Your ORCA version has been built with support for libXC version: 4.2.3
 For citations please refer to: https://tddft.org/programs/libxc/

 This ORCA versions uses:
   CBLAS   interface :  Fast vector & matrix operations
   LAPACKE interface :  Fast linear algebra routines
   SCALAPACK package :  Parallel linear algebra routines


Your calculation utilizes the atom-pairwise dispersion correction
with the zero-damping scheme (D30)
Cite in your paper:
S.Grimme, J.Antony, S.Ehrlich and H.Krieg, J.Chem.Phys., 132, (2010), 154104 
   

XCFun DFT library Copyright 2009-2010 Ulf Ekstrom and contributors.
See http://admol.org/xcfun for more information. This is free soft-
ware; see the source code for copying conditions. There is ABSOLUTELY
NO WARRANTY; not even for MERCHANTABILITY or FITNESS FOR A PARTICULAR
PURPOSE. For details see the documentation. Scientific users of this 
library should cite U. Ekstrom, L. Visscher, R. Bast, A. J. Thorvald-
sen and K. Ruud; J.Chem.Theor.Comp. 2010, DOI: 10.1021/ct100117s
XCFun Version 0.99 
----- Orbital basis set information -----
Your calculation utilizes the basis: def2-TZVP
   F. Weigend and R. Ahlrichs, Phys. Chem. Chem. Phys. 7, 3297 (2005).

----- AuxJ basis set information -----
Your calculation utilizes the auxiliary basis: def2/J
   F. Weigend, Phys. Chem. Chem. Phys. 8, 1057 (2006).

================================================================================
                                        WARNINGS
                       Please study these warnings very carefully!
================================================================================


WARNING: Geometry Optimization
  ===> : Switching off AutoStart
         For restart on a previous wavefunction, please use MOREAD

INFO   : the flag for use of LIBINT has been found!

================================================================================
                                       INPUT FILE
================================================================================
NAME = MeO-TPD.inp
|  1> # avogadro generated ORCA input file 
|  2> # Basic Mode
|  3> # 
|  4> ! wB97X-D3 OPT def2-TZVP def2/J CPCM
|  5> %cpcm
|  6>   epsilon 3
|  7> end
|  8> %pal
|  9>  nprocs 4
| 10> end
| 11>  
| 12> 
| 13> * xyz 0 1
| 14>    C        3.67579       -0.50227        1.18010
| 15>    O        4.19023        0.61679        0.55878
| 16>    C        4.18396        0.85615       -0.77824
| 17>    C        4.74799        2.04756       -1.24110
| 18>    C        4.76683        2.34578       -2.60584
| 19>    C        4.21994        1.45333       -3.55360
| 20>    N        4.23770        1.75905       -4.96876
| 21>    C        4.16032        3.13393       -5.41638
| 22>    C        4.79411        3.54929       -6.60798
| 23>    C        4.72110        4.87634       -7.03809
| 24>    C        4.01482        5.82845       -6.29911
| 25>    O        3.97558        7.10451       -6.76287
| 26>    C        3.32866        8.16262       -6.15895
| 27>    C        3.37573        5.43114       -5.11070
| 28>    C        3.44921        4.10463       -4.67725
| 29>    C        4.33333        0.68802       -5.93774
| 30>    C        3.71493        0.78693       -7.19682
| 31>    C        3.80376       -0.24694       -8.13201
| 32>    C        4.52326       -1.43358       -7.85711
| 33>    C        4.62397       -2.55581       -8.87255
| 34>    C        3.89656       -2.52599      -10.08553
| 35>    C        3.98836       -3.56189      -11.01819
| 36>    C        4.81469       -4.67706      -10.79223
| 37>    N        4.91106       -5.74788      -11.76138
| 38>    C        3.76310       -6.09259      -12.57377
| 39>    C        2.44875       -5.93706      -12.08141
| 40>    C        1.34161       -6.27204      -12.86461
| 41>    C        1.50733       -6.76853      -14.15979
| 42>    O        0.39685       -7.07820      -14.87800
| 43>    C        0.38117       -7.57836      -16.16346
| 44>    C        2.80980       -6.92757      -14.66666
| 45>    C        3.91898       -6.59522      -13.88423
| 46>    C        6.15530       -6.47208      -11.91653
| 47>    C        7.39873       -5.84005      -11.69621
| 48>    C        8.59894       -6.53841      -11.84840
| 49>    C        8.59917       -7.88471      -12.22113
| 50>    O        9.79441       -8.51597      -12.35468
| 51>    C        9.97394       -9.83510      -12.71590
| 52>    C        7.36916       -8.53028      -12.44238
| 53>    C        6.16726       -7.83313      -12.29288
| 54>    C        5.54402       -4.71406       -9.59049
| 55>    C        5.45000       -3.68305       -8.65267
| 56>    C        5.14436       -1.52270       -6.58920
| 57>    C        5.04811       -0.48935       -5.65420
| 58>    C        3.65449        0.25108       -3.07479
| 59>    C        3.63461       -0.04389       -1.70913
| 60>    H        3.82811       -0.41101        2.27502
| 61>    H        4.20050       -1.41452        0.82433
| 62>    H        2.58624       -0.58584        0.98001
| 63>    H        5.17843        2.74935       -0.53753
| 64>    H        5.22767        3.27373       -2.91655
| 65>    H        5.36525        2.85231       -7.20643
| 66>    H        5.22138        5.16680       -7.95360
| 67>    H        3.47637        9.07510       -6.77212
| 68>    H        3.75050        8.34368       -5.14732
| 69>    H        2.23942        7.95653       -6.08738
| 70>    H        2.81633        6.13860       -4.51347
| 71>    H        2.93079        3.83918       -3.76573
| 72>    H        3.14040        1.66466       -7.46223
| 73>    H        3.29825       -0.07857       -9.06690
| 74>    H        3.23819       -1.71608      -10.34724
| 75>    H        3.41588       -3.47522      -11.93236
| 76>    H        2.26976       -5.57064      -11.07950
| 77>    H        0.34555       -6.14670      -12.45846
| 78>    H       -0.67095       -7.73097      -16.47994
| 79>    H        0.90773       -8.55580      -16.20158
| 80>    H        0.86011       -6.85893      -16.86137
| 81>    H        2.97830       -7.30546      -15.66612
| 82>    H        4.90187       -6.71920      -14.31857
| 83>    H        7.45064       -4.79525      -11.42086
| 84>    H        9.53757       -6.02602      -11.67746
| 85>    H       11.06001      -10.05928      -12.74059
| 86>    H        9.55174      -10.01713      -13.72719
| 87>    H        9.49069      -10.50572      -11.97376
| 88>    H        7.32858       -9.57270      -12.72843
| 89>    H        5.24406       -8.37201      -12.45841
| 90>    H        6.18436       -5.55510       -9.35905
| 91>    H        6.04621       -3.80086       -7.76466
| 92>    H        5.71188       -2.38326       -6.28054
| 93>    H        5.55509       -0.61260       -4.70618
| 94>    H        3.20793       -0.46205       -3.75471
| 95>    H        3.18625       -0.97486       -1.38916
| 96> *
| 97> 
| 98> 
| 99>                          ****END OF INPUT****
================================================================================

                       *****************************
                       * Geometry Optimization Run *
                       *****************************

Geometry optimization settings:
Update method            Update   .... BFGS
Choice of coordinates    CoordSys .... Z-matrix Internals
Initial Hessian          InHess   .... Almoef's Model

Convergence Tolerances:
Energy Change            TolE     ....  5.0000e-06 Eh
Max. Gradient            TolMAXG  ....  3.0000e-04 Eh/bohr
RMS Gradient             TolRMSG  ....  1.0000e-04 Eh/bohr
Max. Displacement        TolMAXD  ....  4.0000e-03 bohr
RMS Displacement         TolRMSD  ....  2.0000e-03 bohr
Strict Convergence                ....  False
------------------------------------------------------------------------------
                        ORCA OPTIMIZATION COORDINATE SETUP
------------------------------------------------------------------------------

The optimization will be done in new redundant internal coordinates
Making redundant internal coordinates   ...  (new redundants) done
Evaluating the initial hessian          ...  (Almloef) done
Evaluating the coordinates              ...  done
Calculating the B-matrix                .... done
Calculating the G-matrix                .... done
Diagonalizing the G-matrix              .... done
Small eigenvalue found = 3.445e-04
Small eigenvalue found = 7.108e-04
Small eigenvalue found = 9.728e-04
Small eigenvalue found = 1.465e-03
Small eigenvalue found = 1.987e-03
Small eigenvalue found = 3.604e-03
Small eigenvalue found = 4.411e-03
Small eigenvalue found = 9.540e-03
Small eigenvalue found = 1.242e-02
Small eigenvalue found = 1.340e-02
Small eigenvalue found = 1.727e-02
Small eigenvalue found = 1.850e-02
Small eigenvalue found = 2.169e-02
Small eigenvalue found = 2.193e-02
Small eigenvalue found = 2.619e-02
Small eigenvalue found = 2.737e-02
Small eigenvalue found = 2.906e-02
The first mode is                       ....  181
The number of degrees of freedom        ....  240

    -----------------------------------------------------------------
                    Redundant Internal Coordinates


    -----------------------------------------------------------------
         Definition                    Initial Value    Approx d2E/dq
    -----------------------------------------------------------------
      1. B(O   1,C   0)                  1.3795         0.581634   
      2. B(C   2,O   1)                  1.3583         0.628731   
      3. B(C   3,C   2)                  1.3971         0.608760   
      4. B(C   4,C   3)                  1.3971         0.608777   
      5. B(C   5,C   4)                  1.4120         0.576242   
      6. B(N   6,C   5)                  1.4479         0.452351   
      7. B(C   7,N   6)                  1.4480         0.452243   
      8. B(C   8,C   7)                  1.4121         0.576002   
      9. B(C   9,C   8)                  1.3969         0.609112   
     10. B(C  10,C   9)                  1.3969         0.609073   
     11. B(O  11,C  10)                  1.3583         0.628742   
     12. B(C  12,O  11)                  1.3794         0.581758   
     13. B(C  13,C  10)                  1.4066         0.587767   
     14. B(C  14,C  13)                  1.3975         0.607896   
     15. B(C  14,C   7)                  1.4122         0.575909   
     16. B(C  15,N   6)                  1.4475         0.453089   
     17. B(C  16,C  15)                  1.4062         0.588632   
     18. B(C  17,C  16)                  1.3969         0.609135   
     19. B(C  18,C  17)                  1.4147         0.570608   
     20. B(C  19,C  18)                  1.5168         0.392147   
     21. B(C  20,C  19)                  1.4147         0.570630   
     22. B(C  21,C  20)                  1.3969         0.609125   
     23. B(C  22,C  21)                  1.4062         0.588633   
     24. B(N  23,C  22)                  1.4475         0.453077   
     25. B(C  24,N  23)                  1.4480         0.452261   
     26. B(C  25,C  24)                  1.4121         0.576002   
     27. B(C  26,C  25)                  1.3969         0.609124   
     28. B(C  27,C  26)                  1.3969         0.609056   
     29. B(O  28,C  27)                  1.3583         0.628789   
     30. B(C  29,O  28)                  1.3794         0.581765   
     31. B(C  30,C  27)                  1.4066         0.587745   
     32. B(C  31,C  30)                  1.3975         0.607875   
     33. B(C  31,C  24)                  1.4122         0.575915   
     34. B(C  32,N  23)                  1.4480         0.452229   
     35. B(C  33,C  32)                  1.4121         0.576005   
     36. B(C  34,C  33)                  1.3969         0.609124   
     37. B(C  35,C  34)                  1.3969         0.609061   
     38. B(O  36,C  35)                  1.3583         0.628758   
     39. B(C  37,O  36)                  1.3794         0.581763   
     40. B(C  38,C  35)                  1.4066         0.587747   
     41. B(C  39,C  38)                  1.3975         0.607876   
     42. B(C  39,C  32)                  1.4122         0.575916   
     43. B(C  40,C  22)                  1.4062         0.588643   
     44. B(C  41,C  40)                  1.3969         0.609160   
     45. B(C  41,C  19)                  1.4147         0.570624   
     46. B(C  42,C  18)                  1.4147         0.570653   
     47. B(C  43,C  42)                  1.3969         0.609181   
     48. B(C  43,C  15)                  1.4062         0.588616   
     49. B(C  44,C   5)                  1.4122         0.575797   
     50. B(C  45,C  44)                  1.3973         0.608278   
     51. B(C  45,C   2)                  1.4066         0.587918   
     52. B(H  46,C   0)                  1.1092         0.335545   
     53. B(H  47,C   0)                  1.1109         0.333490   
     54. B(H  48,C   0)                  1.1109         0.333464   
     55. B(H  49,C   3)                  1.0830         0.369537   
     56. B(H  50,C   4)                  1.0817         0.371293   
     57. B(H  51,C   8)                  1.0817         0.371218   
     58. B(H  52,C   9)                  1.0830         0.369532   
     59. B(H  53,C  12)                  1.1092         0.335525   
     60. B(H  54,C  12)                  1.1109         0.333471   
     61. B(H  55,C  12)                  1.1109         0.333520   
     62. B(H  56,C  13)                  1.0817         0.371226   
     63. B(H  57,C  14)                  1.0817         0.371238   
     64. B(H  58,C  16)                  1.0821         0.370706   
     65. B(H  59,C  17)                  1.0761         0.379019   
     66. B(H  60,C  20)                  1.0761         0.379026   
     67. B(H  61,C  21)                  1.0821         0.370697   
     68. B(H  62,C  25)                  1.0817         0.371218   
     69. B(H  63,C  26)                  1.0830         0.369534   
     70. B(H  64,C  29)                  1.1092         0.335531   
     71. B(H  65,C  29)                  1.1109         0.333482   
     72. B(H  66,C  29)                  1.1109         0.333518   
     73. B(H  67,C  30)                  1.0817         0.371225   
     74. B(H  68,C  31)                  1.0817         0.371236   
     75. B(H  69,C  33)                  1.0817         0.371221   
     76. B(H  70,C  34)                  1.0830         0.369542   
     77. B(H  71,C  37)                  1.1092         0.335526   
     78. B(H  72,C  37)                  1.1109         0.333489   
     79. B(H  73,C  37)                  1.1109         0.333523   
     80. B(H  74,C  38)                  1.0817         0.371226   
     81. B(H  75,C  39)                  1.0817         0.371239   
     82. B(H  76,C  40)                  1.0821         0.370699   
     83. B(H  77,C  41)                  1.0761         0.379020   
     84. B(H  78,C  42)                  1.0761         0.379016   
     85. B(H  79,C  43)                  1.0821         0.370691   
     86. B(H  80,C  44)                  1.0818         0.371131   
     87. B(H  81,C  45)                  1.0817         0.371225   
     88. A(O   1,C   0,H  48)          110.2215         0.342532   
     89. A(H  47,C   0,H  48)          110.1079         0.283942   
     90. A(H  46,C   0,H  47)          108.5919         0.284217   
     91. A(O   1,C   0,H  46)          109.0649         0.342889   
     92. A(H  46,C   0,H  48)          108.5818         0.284214   
     93. A(O   1,C   0,H  47)          110.2289         0.342536   
     94. A(C   0,O   1,C   2)          125.7732         0.424599   
     95. A(O   1,C   2,C   3)          118.3290         0.430893   
     96. A(O   1,C   2,C  45)          122.7175         0.428208   
     97. A(C   3,C   2,C  45)          118.9536         0.428532   
     98. A(C   2,C   3,C   4)          120.7385         0.431222   
     99. A(C   2,C   3,H  49)          119.8583         0.353362   
    100. A(C   4,C   3,H  49)          119.4031         0.353363   
    101. A(C   5,C   4,H  50)          120.9590         0.350378   
    102. A(C   3,C   4,H  50)          118.0002         0.353647   
    103. A(C   3,C   4,C   5)          121.0333         0.426996   
    104. A(C   4,C   5,C  44)          117.7470         0.422762   
    105. A(N   6,C   5,C  44)          121.0668         0.402368   
    106. A(C   4,C   5,N   6)          121.1862         0.402422   
    107. A(C   7,N   6,C  15)          119.9447         0.383363   
    108. A(C   5,N   6,C  15)          119.9248         0.383379   
    109. A(C   5,N   6,C   7)          120.1305         0.383255   
    110. A(N   6,C   7,C   8)          121.0749         0.402376   
    111. A(C   8,C   7,C  14)          117.7412         0.422745   
    112. A(N   6,C   7,C  14)          121.1839         0.402364   
    113. A(C   7,C   8,C   9)          121.0497         0.427007   
    114. A(C   9,C   8,H  51)          117.9922         0.353668   
    115. A(C   7,C   8,H  51)          120.9500         0.350341   
    116. A(C   8,C   9,H  52)          119.4024         0.353396   
    117. A(C   8,C   9,C  10)          120.7321         0.431305   
    118. A(C  10,C   9,H  52)          119.8652         0.353392   
    119. A(C   9,C  10,C  13)          118.9555         0.428552   
    120. A(O  11,C  10,C  13)          122.7308         0.428189   
    121. A(C   9,C  10,O  11)          118.3137         0.430934   
    122. A(C  10,O  11,C  12)          125.7816         0.424617   
    123. A(H  54,C  12,H  55)          110.1145         0.283947   
    124. A(O  11,C  12,H  55)          110.2272         0.342554   
    125. A(O  11,C  12,H  53)          109.0588         0.342898   
    126. A(O  11,C  12,H  54)          110.2193         0.342546   
    127. A(H  53,C  12,H  55)          108.5902         0.284218   
    128. A(H  53,C  12,H  54)          108.5869         0.284212   
    129. A(C  14,C  13,H  56)          118.4735         0.353550   
    130. A(C  10,C  13,H  56)          121.1103         0.351541   
    131. A(C  10,C  13,C  14)          120.4160         0.428404   
    132. A(C  13,C  14,H  57)          117.9764         0.353552   
    133. A(C   7,C  14,C  13)          121.1053         0.426841   
    134. A(C   7,C  14,H  57)          120.9107         0.350335   
    135. A(N   6,C  15,C  43)          121.2056         0.404049   
    136. A(N   6,C  15,C  16)          121.2170         0.404051   
    137. A(C  16,C  15,C  43)          117.5774         0.426049   
    138. A(C  17,C  16,H  58)          118.0273         0.353588   
    139. A(C  15,C  16,H  58)          120.6735         0.351545   
    140. A(C  15,C  16,C  17)          121.2916         0.428673   
    141. A(C  18,C  17,H  59)          122.6152         0.351016   
    142. A(C  16,C  17,C  18)          121.5373         0.426290   
    143. A(C  16,C  17,H  59)          115.8466         0.354919   
    144. A(C  17,C  18,C  42)          116.7624         0.421345   
    145. A(C  19,C  18,C  42)          121.6179         0.394296   
    146. A(C  17,C  18,C  19)          121.6197         0.394291   
    147. A(C  18,C  19,C  41)          121.6180         0.394293   
    148. A(C  18,C  19,C  20)          121.6196         0.394293   
    149. A(C  20,C  19,C  41)          116.7624         0.421344   
    150. A(C  21,C  20,H  60)          115.8473         0.354919   
    151. A(C  19,C  20,H  60)          122.6154         0.351019   
    152. A(C  19,C  20,C  21)          121.5365         0.426292   
    153. A(C  20,C  21,C  22)          121.2926         0.428672   
    154. A(C  22,C  21,H  61)          120.6732         0.351544   
    155. A(C  20,C  21,H  61)          118.0265         0.353585   
    156. A(N  23,C  22,C  40)          121.2107         0.404051   
    157. A(C  21,C  22,C  40)          117.5777         0.426052   
    158. A(C  21,C  22,N  23)          121.2116         0.404050   
    159. A(C  22,N  23,C  24)          119.9328         0.383364   
    160. A(C  24,N  23,C  32)          120.1369         0.383239   
    161. A(C  22,N  23,C  32)          119.9304         0.383360   
    162. A(N  23,C  24,C  25)          121.0689         0.402379   
    163. A(C  25,C  24,C  31)          117.7420         0.422746   
    164. A(N  23,C  24,C  31)          121.1891         0.402368   
    165. A(C  24,C  25,C  26)          121.0499         0.427008   
    166. A(C  26,C  25,H  62)          117.9942         0.353669   
    167. A(C  24,C  25,H  62)          120.9477         0.350341   
    168. A(C  27,C  26,H  63)          119.8652         0.353390   
    169. A(C  25,C  26,H  63)          119.4023         0.353397   
    170. A(C  25,C  26,C  27)          120.7322         0.431304   
    171. A(O  28,C  27,C  30)          122.7320         0.428192   
    172. A(C  26,C  27,C  30)          118.9548         0.428547   
    173. A(C  26,C  27,O  28)          118.3132         0.430938   
    174. A(C  27,O  28,C  29)          125.7825         0.424623   
    175. A(O  28,C  29,H  66)          110.2268         0.342554   
    176. A(H  64,C  29,H  65)          108.5869         0.284214   
    177. A(O  28,C  29,H  65)          110.2193         0.342548   
    178. A(O  28,C  29,H  64)          109.0592         0.342900   
    179. A(H  65,C  29,H  66)          110.1150         0.283948   
    180. A(H  64,C  29,H  66)          108.5898         0.284219   
    181. A(C  31,C  30,H  67)          118.4739         0.353547   
    182. A(C  27,C  30,H  67)          121.1093         0.351539   
    183. A(C  27,C  30,C  31)          120.4167         0.428398   
    184. A(C  30,C  31,H  68)          117.9775         0.353549   
    185. A(C  24,C  31,H  68)          120.9108         0.350335   
    186. A(C  24,C  31,C  30)          121.1043         0.426840   
    187. A(C  33,C  32,C  39)          117.7419         0.422747   
    188. A(N  23,C  32,C  39)          121.1894         0.402363   
    189. A(N  23,C  32,C  33)          121.0687         0.402374   
    190. A(C  34,C  33,H  69)          117.9933         0.353670   
    191. A(C  32,C  33,H  69)          120.9483         0.350342   
    192. A(C  32,C  33,C  34)          121.0502         0.427008   
    193. A(C  35,C  34,H  70)          119.8652         0.353392   
    194. A(C  33,C  34,H  70)          119.4030         0.353398   
    195. A(C  33,C  34,C  35)          120.7316         0.431305   
    196. A(O  36,C  35,C  38)          122.7320         0.428189   
    197. A(C  34,C  35,C  38)          118.9555         0.428548   
    198. A(C  34,C  35,O  36)          118.3125         0.430934   
    199. A(C  35,O  36,C  37)          125.7824         0.424619   
    200. A(H  72,C  37,H  73)          110.1158         0.283950   
    201. A(H  71,C  37,H  73)          108.5901         0.284219   
    202. A(O  36,C  37,H  73)          110.2271         0.342555   
    203. A(H  71,C  37,H  72)          108.5865         0.284214   
    204. A(O  36,C  37,H  72)          110.2194         0.342549   
    205. A(O  36,C  37,H  71)          109.0581         0.342899   
    206. A(C  35,C  38,H  74)          121.1091         0.351539   
    207. A(C  35,C  38,C  39)          120.4163         0.428398   
    208. A(C  39,C  38,H  74)          118.4745         0.353548   
    209. A(C  32,C  39,C  38)          121.1043         0.426840   
    210. A(C  38,C  39,H  75)          117.9780         0.353550   
    211. A(C  32,C  39,H  75)          120.9102         0.350336   
    212. A(C  22,C  40,C  41)          121.2924         0.428677   
    213. A(C  41,C  40,H  76)          118.0270         0.353589   
    214. A(C  22,C  40,H  76)          120.6731         0.351545   
    215. A(C  19,C  41,C  40)          121.5375         0.426296   
    216. A(C  40,C  41,H  77)          115.8448         0.354922   
    217. A(C  19,C  41,H  77)          122.6169         0.351017   
    218. A(C  18,C  42,C  43)          121.5371         0.426302   
    219. A(C  43,C  42,H  78)          115.8454         0.354923   
    220. A(C  18,C  42,H  78)          122.6167         0.351020   
    221. A(C  42,C  43,H  79)          118.0255         0.353590   
    222. A(C  15,C  43,H  79)          120.6736         0.351541   
    223. A(C  15,C  43,C  42)          121.2932         0.428677   
    224. A(C  45,C  44,H  80)          117.9858         0.353572   
    225. A(C   5,C  44,H  80)          120.8896         0.350306   
    226. A(C   5,C  44,C  45)          121.1164         0.426875   
    227. A(C  44,C  45,H  81)          118.4688         0.353587   
    228. A(C   2,C  45,H  81)          121.1200         0.351556   
    229. A(C   2,C  45,C  44)          120.4110         0.428471   
    230. D(C   2,O   1,C   0,H  47)     60.8797         0.027143   
    231. D(C   2,O   1,C   0,H  48)    -60.8689         0.027143   
    232. D(C   2,O   1,C   0,H  46)   -179.9862         0.027143   
    233. D(C  45,C   2,O   1,C   0)     -0.1110         0.029062   
    234. D(C   3,C   2,O   1,C   0)    179.8821         0.029062   
    235. D(H  49,C   3,C   2,C  45)   -179.7706         0.025589   
    236. D(C   4,C   3,C   2,C  45)      0.0902         0.025589   
    237. D(C   4,C   3,C   2,O   1)   -179.9031         0.025589   
    238. D(H  49,C   3,C   2,O   1)      0.2361         0.025589   
    239. D(H  50,C   4,C   3,C   2)   -179.1136         0.025590   
    240. D(H  50,C   4,C   3,H  49)      0.7478         0.025590   
    241. D(C   5,C   4,C   3,H  49)    179.7600         0.025590   
    242. D(C   5,C   4,C   3,C   2)     -0.1015         0.025590   
    243. D(N   6,C   5,C   4,C   3)   -179.9994         0.022800   
    244. D(N   6,C   5,C   4,H  50)     -1.0165         0.022800   
    245. D(C  44,C   5,C   4,H  50)    178.9768         0.022800   
    246. D(C  44,C   5,C   4,C   3)     -0.0061         0.022800   
    247. D(C   7,N   6,C   5,C  44)    148.6558         0.016116   
    248. D(C  15,N   6,C   5,C   4)    148.6338         0.016116   
    249. D(C  15,N   6,C   5,C  44)    -31.3593         0.016116   
    250. D(C   7,N   6,C   5,C   4)    -31.3512         0.016116   
    251. D(C  14,C   7,N   6,C  15)    148.7570         0.016108   
    252. D(C  14,C   7,N   6,C   5)    -31.2581         0.016108   
    253. D(C   8,C   7,N   6,C   5)    148.7444         0.016108   
    254. D(C   8,C   7,N   6,C  15)    -31.2405         0.016108   
    255. D(H  51,C   8,C   7,C  14)    179.0572         0.022780   
    256. D(H  51,C   8,C   7,N   6)     -0.9452         0.022780   
    257. D(C   9,C   8,C   7,C  14)      0.1169         0.022780   
    258. D(C   9,C   8,C   7,N   6)   -179.8855         0.022780   
    259. D(C  10,C   9,C   8,C   7)     -0.1228         0.025620   
    260. D(C  10,C   9,C   8,H  51)   -179.0936         0.025620   
    261. D(H  52,C   9,C   8,C   7)    179.6981         0.025620   
    262. D(H  52,C   9,C   8,H  51)      0.7274         0.025620   
    263. D(C  13,C  10,C   9,H  52)   -179.8015         0.025616   
    264. D(O  11,C  10,C   9,H  52)      0.1940         0.025616   
    265. D(C  13,C  10,C   9,C   8)      0.0186         0.025616   
    266. D(O  11,C  10,C   9,C   8)   -179.9859         0.025616   
    267. D(C  12,O  11,C  10,C   9)   -179.8988         0.029063   
    268. D(C  12,O  11,C  10,C  13)      0.0965         0.029063   
    269. D(H  54,C  12,O  11,C  10)     60.8464         0.027156   
    270. D(H  55,C  12,O  11,C  10)    -60.9080         0.027156   
    271. D(H  53,C  12,O  11,C  10)    179.9649         0.027156   
    272. D(H  56,C  13,C  10,O  11)      0.2392         0.023765   
    273. D(H  56,C  13,C  10,C   9)   -179.7656         0.023765   
    274. D(C  14,C  13,C  10,O  11)   -179.9077         0.023765   
    275. D(C  14,C  13,C  10,C   9)      0.0875         0.023765   
    276. D(H  57,C  14,C  13,H  56)      0.7532         0.025512   
    277. D(H  57,C  14,C  13,C  10)   -179.1038         0.025512   
    278. D(C   7,C  14,C  13,H  56)    179.7650         0.025512   
    279. D(C   7,C  14,C  13,C  10)     -0.0919         0.025512   
    280. D(H  57,C  14,C   7,C   8)    178.9726         0.022772   
    281. D(H  57,C  14,C   7,N   6)     -1.0249         0.022772   
    282. D(C  13,C  14,C   7,C   8)     -0.0102         0.022772   
    283. D(C  13,C  14,C   7,N   6)    179.9922         0.022772   
    284. D(C  43,C  15,N   6,C   7)    147.6130         0.016169   
    285. D(C  43,C  15,N   6,C   5)    -32.3719         0.016169   
    286. D(C  16,C  15,N   6,C   7)    -32.3864         0.016169   
    287. D(C  16,C  15,N   6,C   5)    147.6286         0.016169   
    288. D(H  58,C  16,C  15,C  43)    179.1194         0.023839   
    289. D(C  17,C  16,C  15,C  43)      0.1423         0.023839   
    290. D(C  17,C  16,C  15,N   6)   -179.8583         0.023839   
    291. D(H  58,C  16,C  15,N   6)     -0.8811         0.023839   
    292. D(C  18,C  17,C  16,C  15)     -0.3065         0.025622   
    293. D(H  59,C  17,C  16,H  58)      1.0287         0.025622   
    294. D(H  59,C  17,C  16,C  15)   -179.9679         0.025622   
    295. D(C  18,C  17,C  16,H  58)   -179.3099         0.025622   
    296. D(C  42,C  18,C  17,H  59)    179.7964         0.022337   
    297. D(C  42,C  18,C  17,C  16)      0.1582         0.022337   
    298. D(C  19,C  18,C  17,H  59)     -0.1989         0.022337   
    299. D(C  19,C  18,C  17,C  16)   -179.8371         0.022337   
    300. D(C  41,C  19,C  18,C  42)     -6.3623         0.010599   
    301. D(C  41,C  19,C  18,C  17)    173.6328         0.010599   
    302. D(C  20,C  19,C  18,C  42)    173.6450         0.010599   
    303. D(C  20,C  19,C  18,C  17)     -6.3600         0.010599   
    304. D(H  60,C  20,C  19,C  41)    179.7954         0.022339   
    305. D(H  60,C  20,C  19,C  18)     -0.2115         0.022339   
    306. D(C  21,C  20,C  19,C  41)      0.1495         0.022339   
    307. D(C  21,C  20,C  19,C  18)   -179.8575         0.022339   
    308. D(H  61,C  21,C  20,H  60)      1.0272         0.025621   
    309. D(H  61,C  21,C  20,C  19)   -179.3042         0.025621   
    310. D(C  22,C  21,C  20,H  60)   -179.9773         0.025621   
    311. D(C  22,C  21,C  20,C  19)     -0.3086         0.025621   
    312. D(C  40,C  22,C  21,H  61)    179.1243         0.023839   
    313. D(C  40,C  22,C  21,C  20)      0.1552         0.023839   
    314. D(N  23,C  22,C  21,H  61)     -0.8742         0.023839   
    315. D(N  23,C  22,C  21,C  20)   -179.8432         0.023839   
    316. D(C  32,N  23,C  22,C  40)    -32.4019         0.016168   
    317. D(C  32,N  23,C  22,C  21)    147.5964         0.016168   
    318. D(C  24,N  23,C  22,C  40)    147.6029         0.016168   
    319. D(C  24,N  23,C  22,C  21)    -32.3987         0.016168   
    320. D(C  31,C  24,N  23,C  32)    -31.2784         0.016109   
    321. D(C  31,C  24,N  23,C  22)    148.7168         0.016109   
    322. D(C  25,C  24,N  23,C  32)    148.7260         0.016109   
    323. D(C  25,C  24,N  23,C  22)    -31.2789         0.016109   
    324. D(H  62,C  25,C  24,C  31)    179.0626         0.022780   
    325. D(H  62,C  25,C  24,N  23)     -0.9416         0.022780   
    326. D(C  26,C  25,C  24,C  31)      0.1222         0.022780   
    327. D(C  26,C  25,C  24,N  23)   -179.8820         0.022780   
    328. D(H  63,C  26,C  25,H  62)      0.7253         0.025621   
    329. D(H  63,C  26,C  25,C  24)    179.6961         0.025621   
    330. D(C  27,C  26,C  25,H  62)   -179.0948         0.025621   
    331. D(C  27,C  26,C  25,C  24)     -0.1240         0.025621   
    332. D(C  30,C  27,C  26,H  63)   -179.8036         0.025615   
    333. D(C  30,C  27,C  26,C  25)      0.0156         0.025615   
    334. D(O  28,C  27,C  26,H  63)      0.1921         0.025615   
    335. D(O  28,C  27,C  26,C  25)   -179.9887         0.025615   
    336. D(C  29,O  28,C  27,C  30)      0.1029         0.029068   
    337. D(C  29,O  28,C  27,C  26)   -179.8927         0.029068   
    338. D(H  66,C  29,O  28,C  27)    -60.9098         0.027156   
    339. D(H  65,C  29,O  28,C  27)     60.8449         0.027156   
    340. D(H  64,C  29,O  28,C  27)    179.9636         0.027156   
    341. D(H  67,C  30,C  27,O  28)      0.2399         0.023763   
    342. D(H  67,C  30,C  27,C  26)   -179.7645         0.023763   
    343. D(C  31,C  30,C  27,O  28)   -179.9051         0.023763   
    344. D(C  31,C  30,C  27,C  26)      0.0904         0.023763   
    345. D(H  68,C  31,C  30,C  27)   -179.1042         0.025510   
    346. D(C  24,C  31,C  30,H  67)    179.7683         0.025510   
    347. D(C  24,C  31,C  30,C  27)     -0.0904         0.025510   
    348. D(H  68,C  31,C  24,C  25)    178.9692         0.022773   
    349. D(H  68,C  31,C  24,N  23)     -1.0266         0.022773   
    350. D(C  30,C  31,C  24,C  25)     -0.0157         0.022773   
    351. D(H  68,C  31,C  30,H  67)      0.7545         0.025510   
    352. D(C  30,C  31,C  24,N  23)    179.9885         0.022773   
    353. D(C  39,C  32,N  23,C  24)    -31.2839         0.016107   
    354. D(C  39,C  32,N  23,C  22)    148.7210         0.016107   
    355. D(C  33,C  32,N  23,C  24)    148.7183         0.016107   
    356. D(C  33,C  32,N  23,C  22)    -31.2768         0.016107   
    357. D(H  69,C  33,C  32,C  39)    179.0613         0.022780   
    358. D(H  69,C  33,C  32,N  23)     -0.9409         0.022780   
    359. D(C  34,C  33,C  32,C  39)      0.1215         0.022780   
    360. D(C  34,C  33,C  32,N  23)   -179.8806         0.022780   
    361. D(H  70,C  34,C  33,H  69)      0.7250         0.025621   
    362. D(H  70,C  34,C  33,C  32)    179.6952         0.025621   
    363. D(C  35,C  34,C  33,H  69)   -179.0932         0.025621   
    364. D(C  35,C  34,C  33,C  32)     -0.1229         0.025621   
    365. D(C  38,C  35,C  34,H  70)   -179.8022         0.025615   
    366. D(C  38,C  35,C  34,C  33)      0.0151         0.025615   
    367. D(O  36,C  35,C  34,H  70)      0.1935         0.025615   
    368. D(O  36,C  35,C  34,C  33)   -179.9892         0.025615   
    369. D(C  37,O  36,C  35,C  38)      0.1038         0.029065   
    370. D(C  37,O  36,C  35,C  34)   -179.8917         0.029065   
    371. D(H  73,C  37,O  36,C  35)    -60.9106         0.027156   
    372. D(H  72,C  37,O  36,C  35)     60.8453         0.027156   
    373. D(H  71,C  37,O  36,C  35)    179.9628         0.027156   
    374. D(H  74,C  38,C  35,O  36)      0.2404         0.023764   
    375. D(H  74,C  38,C  35,C  34)   -179.7641         0.023764   
    376. D(C  39,C  38,C  35,O  36)   -179.9053         0.023764   
    377. D(C  39,C  38,C  35,C  34)      0.0901         0.023764   
    378. D(H  75,C  39,C  38,H  74)      0.7536         0.025510   
    379. D(H  75,C  39,C  38,C  35)   -179.1044         0.025510   
    380. D(C  32,C  39,C  38,H  74)    179.7682         0.025510   
    381. D(C  32,C  39,C  38,C  35)     -0.0899         0.025510   
    382. D(H  75,C  39,C  32,C  33)    178.9699         0.022773   
    383. D(H  75,C  39,C  32,N  23)     -1.0280         0.022773   
    384. D(C  38,C  39,C  32,C  33)     -0.0158         0.022773   
    385. D(C  38,C  39,C  32,N  23)    179.9864         0.022773   
    386. D(H  76,C  40,C  22,N  23)     -0.8777         0.023840   
    387. D(H  76,C  40,C  22,C  21)    179.1239         0.023840   
    388. D(C  41,C  40,C  22,N  23)   -179.8543         0.023840   
    389. D(C  41,C  40,C  22,C  21)      0.1473         0.023840   
    390. D(H  77,C  41,C  40,H  76)      1.0274         0.025624   
    391. D(H  77,C  41,C  40,C  22)   -179.9698         0.025624   
    392. D(C  19,C  41,C  40,H  76)   -179.3094         0.025624   
    393. D(C  19,C  41,C  40,C  22)     -0.3065         0.025624   
    394. D(H  77,C  41,C  19,C  20)    179.7935         0.022338   
    395. D(H  77,C  41,C  19,C  18)     -0.1996         0.022338   
    396. D(C  40,C  41,C  19,C  20)      0.1533         0.022338   
    397. D(C  40,C  41,C  19,C  18)   -179.8398         0.022338   
    398. D(H  78,C  42,C  18,C  19)     -0.2120         0.022341   
    399. D(H  78,C  42,C  18,C  17)    179.7927         0.022341   
    400. D(C  43,C  42,C  18,C  19)   -179.8602         0.022341   
    401. D(C  43,C  42,C  18,C  17)      0.1445         0.022341   
    402. D(H  79,C  43,C  42,H  78)      1.0256         0.025626   
    403. D(H  79,C  43,C  42,C  18)   -179.3037         0.025626   
    404. D(C  15,C  43,C  42,H  78)   -179.9793         0.025626   
    405. D(C  15,C  43,C  42,C  18)     -0.3086         0.025626   
    406. D(H  79,C  43,C  15,C  16)    179.1288         0.023837   
    407. D(H  79,C  43,C  15,N   6)     -0.8707         0.023837   
    408. D(C  42,C  43,C  15,C  16)      0.1602         0.023837   
    409. D(C  42,C  43,C  15,N   6)   -179.8393         0.023837   
    410. D(H  80,C  44,C   5,N   6)     -0.9442         0.022763   
    411. D(H  80,C  44,C   5,C   4)    179.0625         0.022763   
    412. D(C  45,C  44,C   5,N   6)   -179.8822         0.022763   
    413. D(C  45,C  44,C   5,C   4)      0.1245         0.022763   
    414. D(H  81,C  45,C  44,H  80)      0.7289         0.025546   
    415. D(H  81,C  45,C  44,C   5)    179.6969         0.025546   
    416. D(C   2,C  45,C  44,H  80)   -179.1050         0.025546   
    417. D(C   2,C  45,C  44,C   5)     -0.1370         0.025546   
    418. D(H  81,C  45,C   2,C   3)   -179.8018         0.023778   
    419. D(H  81,C  45,C   2,O   1)      0.1913         0.023778   
    420. D(C  44,C  45,C   2,C   3)      0.0277         0.023778   
    421. D(C  44,C  45,C   2,O   1)   -179.9792         0.023778   
    -----------------------------------------------------------------

Number of atoms                         .... 82
Number of degrees of freedom            .... 421

         *************************************************************
         *                GEOMETRY OPTIMIZATION CYCLE   1            *
         *************************************************************
---------------------------------
CARTESIAN COORDINATES (ANGSTROEM)
---------------------------------
  C      3.675790   -0.502270    1.180100
  O      4.190230    0.616790    0.558780
  C      4.183960    0.856150   -0.778240
  C      4.747990    2.047560   -1.241100
  C      4.766830    2.345780   -2.605840
  C      4.219940    1.453330   -3.553600
  N      4.237700    1.759050   -4.968760
  C      4.160320    3.133930   -5.416380
  C      4.794110    3.549290   -6.607980
  C      4.721100    4.876340   -7.038090
  C      4.014820    5.828450   -6.299110
  O      3.975580    7.104510   -6.762870
  C      3.328660    8.162620   -6.158950
  C      3.375730    5.431140   -5.110700
  C      3.449210    4.104630   -4.677250
  C      4.333330    0.688020   -5.937740
  C      3.714930    0.786930   -7.196820
  C      3.803760   -0.246940   -8.132010
  C      4.523260   -1.433580   -7.857110
  C      4.623970   -2.555810   -8.872550
  C      3.896560   -2.525990  -10.085530
  C      3.988360   -3.561890  -11.018190
  C      4.814690   -4.677060  -10.792230
  N      4.911060   -5.747880  -11.761380
  C      3.763100   -6.092590  -12.573770
  C      2.448750   -5.937060  -12.081410
  C      1.341610   -6.272040  -12.864610
  C      1.507330   -6.768530  -14.159790
  O      0.396850   -7.078200  -14.878000
  C      0.381170   -7.578360  -16.163460
  C      2.809800   -6.927570  -14.666660
  C      3.918980   -6.595220  -13.884230
  C      6.155300   -6.472080  -11.916530
  C      7.398730   -5.840050  -11.696210
  C      8.598940   -6.538410  -11.848400
  C      8.599170   -7.884710  -12.221130
  O      9.794410   -8.515970  -12.354680
  C      9.973940   -9.835100  -12.715900
  C      7.369160   -8.530280  -12.442380
  C      6.167260   -7.833130  -12.292880
  C      5.544020   -4.714060   -9.590490
  C      5.450000   -3.683050   -8.652670
  C      5.144360   -1.522700   -6.589200
  C      5.048110   -0.489350   -5.654200
  C      3.654490    0.251080   -3.074790
  C      3.634610   -0.043890   -1.709130
  H      3.828110   -0.411010    2.275020
  H      4.200500   -1.414520    0.824330
  H      2.586240   -0.585840    0.980010
  H      5.178430    2.749350   -0.537530
  H      5.227670    3.273730   -2.916550
  H      5.365250    2.852310   -7.206430
  H      5.221380    5.166800   -7.953600
  H      3.476370    9.075100   -6.772120
  H      3.750500    8.343680   -5.147320
  H      2.239420    7.956530   -6.087380
  H      2.816330    6.138600   -4.513470
  H      2.930790    3.839180   -3.765730
  H      3.140400    1.664660   -7.462230
  H      3.298250   -0.078570   -9.066900
  H      3.238190   -1.716080  -10.347240
  H      3.415880   -3.475220  -11.932360
  H      2.269760   -5.570640  -11.079500
  H      0.345550   -6.146700  -12.458460
  H     -0.670950   -7.730970  -16.479940
  H      0.907730   -8.555800  -16.201580
  H      0.860110   -6.858930  -16.861370
  H      2.978300   -7.305460  -15.666120
  H      4.901870   -6.719200  -14.318570
  H      7.450640   -4.795250  -11.420860
  H      9.537570   -6.026020  -11.677460
  H     11.060010  -10.059280  -12.740590
  H      9.551740  -10.017130  -13.727190
  H      9.490690  -10.505720  -11.973760
  H      7.328580   -9.572700  -12.728430
  H      5.244060   -8.372010  -12.458410
  H      6.184360   -5.555100   -9.359050
  H      6.046210   -3.800860   -7.764660
  H      5.711880   -2.383260   -6.280540
  H      5.555090   -0.612600   -4.706180
  H      3.207930   -0.462050   -3.754710
  H      3.186250   -0.974860   -1.389160

----------------------------
CARTESIAN COORDINATES (A.U.)
----------------------------
  NO LB      ZA    FRAG     MASS         X           Y           Z
   0 C     6.0000    0    12.011    6.946236   -0.949153    2.230066
   1 O     8.0000    0    15.999    7.918387    1.165564    1.055941
   2 C     6.0000    0    12.011    7.906539    1.617889   -1.470660
   3 C     6.0000    0    12.011    8.972401    3.869328   -2.345339
   4 C     6.0000    0    12.011    9.008003    4.432882   -4.924324
   5 C     6.0000    0    12.011    7.974531    2.746396   -6.715331
   6 N     7.0000    0    14.007    8.008092    3.324123   -9.389596
   7 C     6.0000    0    12.011    7.861865    5.922269  -10.235475
   8 C     6.0000    0    12.011    9.059555    6.707186  -12.487272
   9 C     6.0000    0    12.011    8.921586    9.214947  -13.300063
  10 C     6.0000    0    12.011    7.586910   11.014174  -11.903593
  11 O     8.0000    0    15.999    7.512757   13.425578  -12.779972
  12 C     6.0000    0    12.011    6.290256   15.425116  -11.638729
  13 C     6.0000    0    12.011    6.379205   10.263367   -9.657823
  14 C     6.0000    0    12.011    6.518062    7.756627   -8.838722
  15 C     6.0000    0    12.011    8.188807    1.300169  -11.220702
  16 C     6.0000    0    12.011    7.020200    1.487082  -13.600019
  17 C     6.0000    0    12.011    7.188065   -0.466649  -15.367272
  18 C     6.0000    0    12.011    8.547723   -2.709074  -14.847786
  19 C     6.0000    0    12.011    8.738037   -4.829781  -16.766690
  20 C     6.0000    0    12.011    7.363431   -4.773429  -19.058890
  21 C     6.0000    0    12.011    7.536908   -6.730997  -20.821362
  22 C     6.0000    0    12.011    9.098446   -8.838363  -20.394359
  23 N     7.0000    0    14.007    9.280558  -10.861919  -22.225787
  24 C     6.0000    0    12.011    7.111228  -11.513327  -23.760982
  25 C     6.0000    0    12.011    4.627467  -11.219417  -22.830556
  26 C     6.0000    0    12.011    2.535275  -11.852438  -24.310590
  27 C     6.0000    0    12.011    2.848441  -12.790668  -26.758125
  28 O     8.0000    0    15.999    0.749938  -13.375860  -28.115345
  29 C     6.0000    0    12.011    0.720307  -14.321025  -30.544513
  30 C     6.0000    0    12.011    5.309752  -13.091210  -27.715971
  31 C     6.0000    0    12.011    7.405799  -12.463160  -26.237392
  32 C     6.0000    0    12.011   11.631831  -12.230459  -22.518978
  33 C     6.0000    0    12.011   13.981573  -11.036095  -22.102634
  34 C     6.0000    0    12.011   16.249642  -12.355804  -22.390231
  35 C     6.0000    0    12.011   16.250076  -14.899943  -23.094589
  36 O     8.0000    0    15.999   18.508753  -16.092851  -23.346962
  37 C     6.0000    0    12.011   18.848015  -18.585645  -24.029569
  38 C     6.0000    0    12.011   13.925694  -16.119893  -23.512691
  39 C     6.0000    0    12.011   11.654432  -14.802470  -23.230177
  40 C     6.0000    0    12.011   10.476679   -8.908282  -18.123400
  41 C     6.0000    0    12.011   10.299007   -6.959956  -16.351177
  42 C     6.0000    0    12.011    9.721432   -2.877486  -12.451783
  43 C     6.0000    0    12.011    9.539545   -0.924737  -10.684890
  44 C     6.0000    0    12.011    6.905985    0.474472   -5.810511
  45 C     6.0000    0    12.011    6.868418   -0.082940   -3.229788
  46 H     1.0000    0     1.008    7.234080   -0.776696    4.299165
  47 H     1.0000    0     1.008    7.937795   -2.673055    1.557758
  48 H     1.0000    0     1.008    4.887285   -1.107077    1.851951
  49 H     1.0000    0     1.008    9.785815    5.195519   -1.015784
  50 H     1.0000    0     1.008    9.878865    6.186453   -5.511481
  51 H     1.0000    0     1.008   10.138853    5.390085  -13.618179
  52 H     1.0000    0     1.008    9.866978    9.763837  -15.030126
  53 H     1.0000    0     1.008    6.569387   17.149454  -12.797452
  54 H     1.0000    0     1.008    7.087418   15.767270   -9.727025
  55 H     1.0000    0     1.008    4.231890   15.035663  -11.503481
  56 H     1.0000    0     1.008    5.322092   11.600273   -8.529222
  57 H     1.0000    0     1.008    5.538390    7.254999   -7.116198
  58 H     1.0000    0     1.008    5.934496    3.145752  -14.101571
  59 H     1.0000    0     1.008    6.232789   -0.148476  -17.133958
  60 H     1.0000    0     1.008    6.119292   -3.242921  -19.553450
  61 H     1.0000    0     1.008    6.455078   -6.567214  -22.548893
  62 H     1.0000    0     1.008    4.289225  -10.526984  -20.937221
  63 H     1.0000    0     1.008    0.652995  -11.615580  -23.543077
  64 H     1.0000    0     1.008   -1.267912  -14.609416  -31.142573
  65 H     1.0000    0     1.008    1.715361  -16.168119  -30.616549
  66 H     1.0000    0     1.008    1.625372  -12.961499  -31.863372
  67 H     1.0000    0     1.008    5.628171  -13.805319  -29.604676
  68 H     1.0000    0     1.008    9.263192  -12.697448  -27.058176
  69 H     1.0000    0     1.008   14.079669   -9.061709  -21.582298
  70 H     1.0000    0     1.008   18.023395  -11.387527  -22.067201
  71 H     1.0000    0     1.008   20.900390  -19.009284  -24.076226
  72 H     1.0000    0     1.008   18.050173  -18.929632  -25.940630
  73 H     1.0000    0     1.008   17.934805  -19.852934  -22.627127
  74 H     1.0000    0     1.008   13.849009  -18.089781  -24.053247
  75 H     1.0000    0     1.008    9.909837  -15.820806  -23.542983
  76 H     1.0000    0     1.008   11.686747  -10.497618  -17.686041
  77 H     1.0000    0     1.008   11.425681   -7.182584  -14.673081
  78 H     1.0000    0     1.008   10.793889   -4.503709  -11.868501
  79 H     1.0000    0     1.008   10.497599   -1.157646   -8.893391
  80 H     1.0000    0     1.008    6.062109   -0.873148   -7.095374
  81 H     1.0000    0     1.008    6.021140   -1.842218   -2.625132

--------------------------------
INTERNAL COORDINATES (ANGSTROEM)
--------------------------------
 C      0   0   0     0.000000000000     0.00000000     0.00000000
 O      1   0   0     1.379486259301     0.00000000     0.00000000
 C      2   1   0     1.358291206958   125.77319742     0.00000000
 C      3   2   1     1.397078025237   118.32895751   179.88208339
 C      4   3   2     1.397070285132   120.73845705   180.09689630
 C      5   4   3     1.412021491409   121.03334766   359.89852726
 N      6   5   4     1.447915039496   121.18623700   180.00063313
 C      7   6   5     1.447980090747   120.13047308   328.64880250
 C      8   7   6     1.412134644324   121.07492471   148.74442408
 C      9   8   7     1.396920461122   121.04965338   180.11449266
 C     10   9   8     1.396938198669   120.73213893   359.87715766
 O     11  10   9     1.358286508363   118.31370269   180.01412409
 C     12  11  10     1.379428006422   125.78160894   180.10119906
 C     11  10   9     1.406630581318   118.95552330     0.00000000
 C     14  11  10     1.397464487205   120.41598097     0.08754101
 C      7   6   5     1.447471104444   119.92481099   148.63375386
 C     16   7   6     1.406230491242   121.21703443   147.62858523
 C     17  16   7     1.396910262651   121.29162553   180.14174681
 C     18  17  16     1.414695991936   121.53732769   359.69353646
 C     19  18  17     1.516793021674   121.61974958   180.16286950
 C     20  19  18     1.414685484799   121.61959314   353.64004108
 C     21  20  19     1.396914716652   121.53646302   180.14253553
 C     22  21  20     1.406230180091   121.29259300   359.69135996
 N     23  22  21     1.447478625680   121.21161068   180.15676845
 C     24  23  22     1.447969149464   119.93275636   327.60130829
 C     25  24  23     1.412134509528   121.06892920   328.72108857
 C     26  25  24     1.396915466304   121.04991940   180.11804287
 C     27  26  25     1.396945478857   120.73220498   359.87604447
 O     28  27  26     1.358266153373   118.31318092   180.01133437
 C     29  28  27     1.379424988754   125.78247088   180.10733569
 C     28  27  26     1.406641041417   118.95479251     0.00000000
 C     31  28  27     1.397473971064   120.41667765     0.09037621
 C     24  23  22     1.447988377060   119.93035153   147.59643963
 C     33  24  23     1.412133488095   121.06870612   328.72322052
 C     34  33  24     1.396915362433   121.05023445   180.11939156
 C     35  34  33     1.396943590772   120.73156833   359.87706717
 O     36  35  34     1.358279591137   118.31249861   180.01075649
 C     37  36  35     1.379425556600   125.78239482   180.10829919
 C     36  35  34     1.406640248073   118.95550360     0.00000000
 C     39  36  35     1.397473428191   120.41625618     0.09014268
 C     23  22  21     1.406225542543   117.57765737     0.15521458
 C     41  23  22     1.396899328119   121.29237426     0.14725864
 C     19  18  17     1.414674292019   116.76237353     0.15817534
 C     43  19  18     1.396889861442   121.53708355     0.14452124
 C      6   5   4     1.412231489912   117.74699742     0.00000000
 C     45   6   5     1.397293723918   121.11641831     0.12452082
 H      1   2   3     1.109224763698   109.06493228   180.01378652
 H      1   2   3     1.110897357770   110.22889896    60.87969373
 H      1   2   3     1.110918158777   110.22150589   299.13108810
 H      4   3   2     1.082958236776   119.85832210     0.23607246
 H      5   4   3     1.081667884427   118.00018672   180.88637061
 H      9   8   7     1.081722895431   120.95003198   359.05475374
 H     10   9   8     1.082961518291   119.40238479   179.69812982
 H     13  12  11     1.109240931178   109.05879457   179.96485909
 H     13  12  11     1.110912672581   110.21932281    60.84637478
 H     13  12  11     1.110873138842   110.22722839   299.09203199
 H     14  11  10     1.081717007586   121.11034760   180.23444150
 H     15  14  11     1.081707774447   117.97643869   180.89624561
 H     17  16   7     1.082098489926   120.67351754   359.11892078
 H     18  17  16     1.076061396529   115.84658539   180.03214375
 H     21  20  19     1.076056406096   122.61540144   359.78852975
 H     22  21  20     1.082105275932   118.02650475   180.69583744
 H     26  25  24     1.081723016580   120.94771295   359.05841177
 H     27  26  25     1.082960507913   119.40232556   179.69607933
 H     30  29  28     1.109236628001   109.05919225   179.96355715
 H     30  29  28     1.110903920958   110.21927270    60.84485651
 H     30  29  28     1.110874167762   110.22676471   299.09021250
 H     31  28  27     1.081717797626   121.10927327   180.23545241
 H     32  31  28     1.081709308502   117.97745975   180.89578831
 H     34  33  24     1.081720532578   120.94831049   359.05914216
 H     35  34  33     1.082954418524   119.40295634   179.69519919
 H     38  37  36     1.109240421820   109.05809397   179.96284160
 H     38  37  36     1.110898386442   110.21937620    60.84534360
 H     38  37  36     1.110870616454   110.22705370   299.08942062
 H     39  36  35     1.081716596572   121.10912607   180.23586015
 H     40  39  36     1.081707019160   117.97799187   180.89556843
 H     41  23  22     1.082103539778   120.67305428   179.12388803
 H     42  41  23     1.076061020714   115.84477733   180.03024710
 H     43  19  18     1.076063873383   122.61666352   179.79267801
 H     44  43  19     1.082109607803   118.02550026   180.69631089
 H     45   6   5     1.081786225139   120.88958514   179.06252319
 H     46  45   6     1.081717445269   118.46883394   179.69690512

---------------------------
INTERNAL COORDINATES (A.U.)
---------------------------
 C      0   0   0     0.000000000000     0.00000000     0.00000000
 O      1   0   0     2.606851235586     0.00000000     0.00000000
 C      2   1   0     2.566798391264   125.77319742     0.00000000
 C      3   2   1     2.640094855417   118.32895751   179.88208339
 C      4   3   2     2.640080228740   120.73845705   180.09689630
 C      5   4   3     2.668333913973   121.03334766   359.89852726
 N      6   5   4     2.736162889834   121.18623700   180.00063313
 C      7   6   5     2.736285818882   120.13047308   328.64880250
 C      8   7   6     2.668547741995   121.07492471   148.74442408
 C      9   8   7     2.639797102391   121.04965338   180.11449266
 C     10   9   8     2.639830621497   120.73213893   359.87715766
 O     11  10   9     2.566789512206   118.31370269   180.01412409
 C     12  11  10     2.606741153598   125.78160894   180.10119906
 C     11  10   9     2.658146570290   118.95552330     0.00000000
 C     14  11  10     2.640825162699   120.41598097     0.08754101
 C      7   6   5     2.735323974163   119.92481099   148.63375386
 C     16   7   6     2.657390509618   121.21703443   147.62858523
 C     17  16   7     2.639777830075   121.29162553   180.14174681
 C     18  17  16     2.673387987515   121.53732769   359.69353646
 C     19  18  17     2.866323412807   121.61974958   180.16286950
 C     20  19  18     2.673368131903   121.61959314   353.64004108
 C     21  20  19     2.639786246917   121.53646302   180.14253553
 C     22  21  20     2.657389921628   121.29259300   359.69135996
 N     23  22  21     2.735338187240   121.21161068   180.15676845
 C     24  23  22     2.736265142854   119.93275636   327.60130829
 C     25  24  23     2.668547487267   121.06892920   328.72108857
 C     26  25  24     2.639787663554   121.04991940   180.11804287
 C     27  26  25     2.639844379060   120.73220498   359.87604447
 O     28  27  26     2.566751046851   118.31318092   180.01133437
 C     29  28  27     2.606735451033   125.78247088   180.10733569
 C     28  27  26     2.658166337013   118.95479251     0.00000000
 C     31  28  27     2.640843084593   120.41667765     0.09037621
 C     24  23  22     2.736301477744   119.93035153   147.59643963
 C     33  24  23     2.668545557039   121.06870612   328.72322052
 C     34  33  24     2.639787467265   121.05023445   180.11939156
 C     35  34  33     2.639840811096   120.73156833   359.87706717
 O     36  35  34     2.566776440544   118.31249861   180.01075649
 C     37  36  35     2.606736524105   125.78239482   180.10829919
 C     36  35  34     2.658164837810   118.95550360     0.00000000
 C     39  36  35     2.640842058713   120.41625618     0.09014268
 C     23  22  21     2.657381157931   117.57765737     0.15521458
 C     41  23  22     2.639757166804   121.29237426     0.14725864
 C     19  18  17     2.673346980615   116.76237353     0.15817534
 C     43  19  18     2.639739277377   121.53708355     0.14452124
 C      6   5   4     2.668730753634   117.74699742     0.00000000
 C     45   6   5     2.640502466852   121.11641831     0.12452082
 H      1   2   3     2.096131024352   109.06493228   180.01378652
 H      1   2   3     2.099291769082   110.22889896    60.87969373
 H      1   2   3     2.099331077288   110.22150589   299.13108810
 H      4   3   2     2.046494481980   119.85832210     0.23607246
 H      5   4   3     2.044056069424   118.00018672   180.88637061
 H      9   8   7     2.044160025157   120.95003198   359.05475374
 H     10   9   8     2.046500683146   119.40238479   179.69812982
 H     13  12  11     2.096161576462   109.05879457   179.96485909
 H     13  12  11     2.099320709880   110.21932281    60.84637478
 H     13  12  11     2.099246001940   110.22722839   299.09203199
 H     14  11  10     2.044148898742   121.11034760   180.23444150
 H     15  14  11     2.044131450639   117.97643869   180.89624561
 H     17  16   7     2.044869795890   120.67351754   359.11892078
 H     18  17  16     2.033461342725   115.84658539   180.03214375
 H     21  20  19     2.033451912173   122.61540144   359.78852975
 H     22  21  20     2.044882619583   118.02650475   180.69583744
 H     26  25  24     2.044160254096   120.94771295   359.05841177
 H     27  26  25     2.046498773809   119.40232556   179.69607933
 H     30  29  28     2.096153444637   109.05919225   179.96355715
 H     30  29  28     2.099304171710   110.21927270    60.84485651
 H     30  29  28     2.099247946317   110.22676471   299.09021250
 H     31  28  27     2.044150391701   121.10927327   180.23545241
 H     32  31  28     2.044134349582   117.97745975   180.89578831
 H     34  33  24     2.044155560011   120.94831049   359.05914216
 H     35  34  33     2.046487266530   119.40295634   179.69519919
 H     38  37  36     2.096160613916   109.05809397   179.96284160
 H     38  37  36     2.099293712991   110.21937620    60.84534360
 H     38  37  36     2.099241235318   110.22705370   299.08942062
 H     39  36  35     2.044148122039   121.10912607   180.23586015
 H     40  39  36     2.044130023353   117.97799187   180.89556843
 H     41  23  22     2.044879338727   120.67305428   179.12388803
 H     42  41  23     2.033460632537   115.84477733   180.03024710
 H     43  19  18     2.033466023300   122.61666352   179.79267801
 H     44  43  19     2.044890805633   118.02550026   180.69631089
 H     45   6   5     2.044279700961   120.88958514   179.06252319
 H     46  45   6     2.044149725844   118.46883394   179.69690512

---------------------
BASIS SET INFORMATION
---------------------
There are 4 groups of distinct atoms

 Group   1 Type C   : 11s6p2d1f contracted to 5s3p2d1f pattern {62111/411/11/1}
 Group   2 Type O   : 11s6p2d1f contracted to 5s3p2d1f pattern {62111/411/11/1}
 Group   3 Type N   : 11s6p2d1f contracted to 5s3p2d1f pattern {62111/411/11/1}
 Group   4 Type H   : 5s1p contracted to 3s1p pattern {311/1}

Atom   0C    basis set group =>   1
Atom   1O    basis set group =>   2
Atom   2C    basis set group =>   1
Atom   3C    basis set group =>   1
Atom   4C    basis set group =>   1
Atom   5C    basis set group =>   1
Atom   6N    basis set group =>   3
Atom   7C    basis set group =>   1
Atom   8C    basis set group =>   1
Atom   9C    basis set group =>   1
Atom  10C    basis set group =>   1
Atom  11O    basis set group =>   2
Atom  12C    basis set group =>   1
Atom  13C    basis set group =>   1
Atom  14C    basis set group =>   1
Atom  15C    basis set group =>   1
Atom  16C    basis set group =>   1
Atom  17C    basis set group =>   1
Atom  18C    basis set group =>   1
Atom  19C    basis set group =>   1
Atom  20C    basis set group =>   1
Atom  21C    basis set group =>   1
Atom  22C    basis set group =>   1
Atom  23N    basis set group =>   3
Atom  24C    basis set group =>   1
Atom  25C    basis set group =>   1
Atom  26C    basis set group =>   1
Atom  27C    basis set group =>   1
Atom  28O    basis set group =>   2
Atom  29C    basis set group =>   1
Atom  30C    basis set group =>   1
Atom  31C    basis set group =>   1
Atom  32C    basis set group =>   1
Atom  33C    basis set group =>   1
Atom  34C    basis set group =>   1
Atom  35C    basis set group =>   1
Atom  36O    basis set group =>   2
Atom  37C    basis set group =>   1
Atom  38C    basis set group =>   1
Atom  39C    basis set group =>   1
Atom  40C    basis set group =>   1
Atom  41C    basis set group =>   1
Atom  42C    basis set group =>   1
Atom  43C    basis set group =>   1
Atom  44C    basis set group =>   1
Atom  45C    basis set group =>   1
Atom  46H    basis set group =>   4
Atom  47H    basis set group =>   4
Atom  48H    basis set group =>   4
Atom  49H    basis set group =>   4
Atom  50H    basis set group =>   4
Atom  51H    basis set group =>   4
Atom  52H    basis set group =>   4
Atom  53H    basis set group =>   4
Atom  54H    basis set group =>   4
Atom  55H    basis set group =>   4
Atom  56H    basis set group =>   4
Atom  57H    basis set group =>   4
Atom  58H    basis set group =>   4
Atom  59H    basis set group =>   4
Atom  60H    basis set group =>   4
Atom  61H    basis set group =>   4
Atom  62H    basis set group =>   4
Atom  63H    basis set group =>   4
Atom  64H    basis set group =>   4
Atom  65H    basis set group =>   4
Atom  66H    basis set group =>   4
Atom  67H    basis set group =>   4
Atom  68H    basis set group =>   4
Atom  69H    basis set group =>   4
Atom  70H    basis set group =>   4
Atom  71H    basis set group =>   4
Atom  72H    basis set group =>   4
Atom  73H    basis set group =>   4
Atom  74H    basis set group =>   4
Atom  75H    basis set group =>   4
Atom  76H    basis set group =>   4
Atom  77H    basis set group =>   4
Atom  78H    basis set group =>   4
Atom  79H    basis set group =>   4
Atom  80H    basis set group =>   4
Atom  81H    basis set group =>   4
---------------------------------
AUXILIARY/J BASIS SET INFORMATION
---------------------------------
There are 4 groups of distinct atoms

 Group   1 Type C   : 12s5p4d2f1g contracted to 6s4p3d1f1g pattern {711111/2111/211/2/1}
 Group   2 Type O   : 12s5p4d2f1g contracted to 6s4p3d1f1g pattern {711111/2111/211/2/1}
 Group   3 Type N   : 12s5p4d2f1g contracted to 6s4p3d1f1g pattern {711111/2111/211/2/1}
 Group   4 Type H   : 5s2p1d contracted to 3s1p1d pattern {311/2/1}

Atom   0C    basis set group =>   1
Atom   1O    basis set group =>   2
Atom   2C    basis set group =>   1
Atom   3C    basis set group =>   1
Atom   4C    basis set group =>   1
Atom   5C    basis set group =>   1
Atom   6N    basis set group =>   3
Atom   7C    basis set group =>   1
Atom   8C    basis set group =>   1
Atom   9C    basis set group =>   1
Atom  10C    basis set group =>   1
Atom  11O    basis set group =>   2
Atom  12C    basis set group =>   1
Atom  13C    basis set group =>   1
Atom  14C    basis set group =>   1
Atom  15C    basis set group =>   1
Atom  16C    basis set group =>   1
Atom  17C    basis set group =>   1
Atom  18C    basis set group =>   1
Atom  19C    basis set group =>   1
Atom  20C    basis set group =>   1
Atom  21C    basis set group =>   1
Atom  22C    basis set group =>   1
Atom  23N    basis set group =>   3
Atom  24C    basis set group =>   1
Atom  25C    basis set group =>   1
Atom  26C    basis set group =>   1
Atom  27C    basis set group =>   1
Atom  28O    basis set group =>   2
Atom  29C    basis set group =>   1
Atom  30C    basis set group =>   1
Atom  31C    basis set group =>   1
Atom  32C    basis set group =>   1
Atom  33C    basis set group =>   1
Atom  34C    basis set group =>   1
Atom  35C    basis set group =>   1
Atom  36O    basis set group =>   2
Atom  37C    basis set group =>   1
Atom  38C    basis set group =>   1
Atom  39C    basis set group =>   1
Atom  40C    basis set group =>   1
Atom  41C    basis set group =>   1
Atom  42C    basis set group =>   1
Atom  43C    basis set group =>   1
Atom  44C    basis set group =>   1
Atom  45C    basis set group =>   1
Atom  46H    basis set group =>   4
Atom  47H    basis set group =>   4
Atom  48H    basis set group =>   4
Atom  49H    basis set group =>   4
Atom  50H    basis set group =>   4
Atom  51H    basis set group =>   4
Atom  52H    basis set group =>   4
Atom  53H    basis set group =>   4
Atom  54H    basis set group =>   4
Atom  55H    basis set group =>   4
Atom  56H    basis set group =>   4
Atom  57H    basis set group =>   4
Atom  58H    basis set group =>   4
Atom  59H    basis set group =>   4
Atom  60H    basis set group =>   4
Atom  61H    basis set group =>   4
Atom  62H    basis set group =>   4
Atom  63H    basis set group =>   4
Atom  64H    basis set group =>   4
Atom  65H    basis set group =>   4
Atom  66H    basis set group =>   4
Atom  67H    basis set group =>   4
Atom  68H    basis set group =>   4
Atom  69H    basis set group =>   4
Atom  70H    basis set group =>   4
Atom  71H    basis set group =>   4
Atom  72H    basis set group =>   4
Atom  73H    basis set group =>   4
Atom  74H    basis set group =>   4
Atom  75H    basis set group =>   4
Atom  76H    basis set group =>   4
Atom  77H    basis set group =>   4
Atom  78H    basis set group =>   4
Atom  79H    basis set group =>   4
Atom  80H    basis set group =>   4
Atom  81H    basis set group =>   4
--------------------------------------------------------------------------
[[5353,1],2]: A high-performance Open MPI point-to-point messaging module
was unable to find any relevant network interfaces:

Module: OpenFabrics (openib)
  Host: compute-1-12

Another transport will be used instead, although this may result in
lower performance.

NOTE: You can disable this warning by setting the MCA parameter
btl_base_warn_component_unused to 0.
--------------------------------------------------------------------------


           ************************************************************
           *        Program running with 4 parallel MPI-processes     *
           *              working on a common directory               *
           ************************************************************
------------------------------------------------------------------------------
                           ORCA GTO INTEGRAL CALCULATION
------------------------------------------------------------------------------

                         BASIS SET STATISTICS AND STARTUP INFO

 # of primitive gaussian shells          ... 1136
 # of primitive gaussian functions       ... 2404
 # of contracted shells                  ...  650
 # of contracted basis functions         ... 1642
 Highest angular momentum                ...    3
 Maximum contraction depth               ...    6
 Integral package used                   ... LIBINT
 Integral threshhold            Thresh   ...  2.500e-11
 Primitive cut-off              TCut     ...  2.500e-12


------------------------------ INTEGRAL EVALUATION ----------------------------


 * One electron integrals 
 Pre-screening matrix                    ... [compute-1-12.local:49106] 3 more processes have sent help message help-mpi-btl-base.txt / btl:no-nics
[compute-1-12.local:49106] Set MCA parameter "orte_base_help_aggregate" to 0 to see all help / error messages
done
 Shell pair data                         ... done (   0.045 sec)

--------------------------------------------------------------------------
[[5330,1],3]: A high-performance Open MPI point-to-point messaging module
was unable to find any relevant network interfaces:

Module: OpenFabrics (openib)
  Host: compute-1-12

Another transport will be used instead, although this may result in
lower performance.

NOTE: You can disable this warning by setting the MCA parameter
btl_base_warn_component_unused to 0.
--------------------------------------------------------------------------


           ************************************************************
           *        Program running with 4 parallel MPI-processes     *
           *              working on a common directory               *
           ************************************************************
-------------------------------------------------------------------------------
                                 ORCA SCF
-------------------------------------------------------------------------------

------------
SCF SETTINGS
------------
Hamiltonian:
 Density Functional     Method          .... DFT(GTOs)
 Exchange Functional    Exchange        .... WB97X-D3
 Correlation Functional Correlation     .... WB97X-D3
 Gradients option       PostSCFGGA      .... off
 Hybrid DFT is turned on
   Fraction HF Exchange ScalHFX         ....  0.195728
   Scaling of DF-GGA-X  ScalDFX         ....  0.000000
   Scaling of DF-GGA-C  ScalDFC         ....  1.000000
   Scaling of DF-LDA-C  ScalLDAC        ....  1.000000
   Perturbative correction              ....  0.000000
   Density functional embedding theory  .... OFF
 Long-range corrected/Screened/Range-Separated Hybrid DFT is turned on
   Amount of maximum screened exact exchange              ....  0.804272
   Range separation parameter mu (erf(mu*r12)/r12)        ....  0.250000


General Settings:
 Integral files         IntName         .... MeO-TPD
 Hartree-Fock type      HFTyp           .... RHF
 Total Charge           Charge          ....    0
 Multiplicity           Mult            ....    1
 Number of Electrons    NEL             ....  322
 Basis Dimension        Dim             .... 1642
 Nuclear Repulsion      ENuc            ....   4785.7765373201 Eh

Convergence Acceleration:
 DIIS                   CNVDIIS         .... on
   Start iteration      DIISMaxIt       ....    12
   Startup error        DIISStart       ....  0.200000
   # of expansion vecs  DIISMaxEq       ....     5
   Bias factor          DIISBfac        ....   1.050
   Max. coefficient     DIISMaxC        ....  10.000
 Newton-Raphson         CNVNR           .... off
 SOSCF                  CNVSOSCF        .... on
   Start iteration      SOSCFMaxIt      ....   150
   Startup grad/error   SOSCFStart      ....  0.003300
 Level Shifting         CNVShift        .... on
   Level shift para.    LevelShift      ....    0.2500
   Turn off err/grad.   ShiftErr        ....    0.0010
 Zerner damping         CNVZerner       .... off
 Static damping         CNVDamp         .... on
   Fraction old density DampFac         ....    0.7000
   Max. Damping (<1)    DampMax         ....    0.9800
   Min. Damping (>=0)   DampMin         ....    0.0000
   Turn off err/grad.   DampErr         ....    0.1000
 Fernandez-Rico         CNVRico         .... off

SCF Procedure:
 Maximum # iterations   MaxIter         ....   125
 SCF integral mode      SCFMode         .... Direct
   Integral package                     .... LIBINT
 Reset frequency        DirectResetFreq ....    20
 Integral Threshold     Thresh          ....  2.500e-11 Eh
 Primitive CutOff       TCut            ....  2.500e-12 Eh

Convergence Tolerance:
 Convergence Check Mode ConvCheckMode   .... Total+1el-Energy
 Convergence forced     ConvForced      .... 0
 Energy Change          TolE            ....  1.000e-08 Eh
 1-El. energy change                    ....  1.000e-05 Eh
 Orbital Gradient       TolG            ....  1.000e-05
 Orbital Rotation angle TolX            ....  1.000e-05
 DIIS Error             TolErr          ....  5.000e-07


Diagonalization of the overlap matrix:
Smallest eigenvalue                        ... 5.829e-06
Time for diagonalization                   ...    1.011 sec
Threshold for overlap eigenvalues          ... 1.000e-08
Number of eigenvalues below threshold      ... 0
Time for construction of square roots      ...    0.724 sec
Total time needed                          ...    1.749 sec

-------------------
DFT GRID GENERATION
-------------------

General Integration Accuracy     IntAcc      ...  4.340
Radial Grid Type                 RadialGrid  ... Gauss-Chebyshev
Angular Grid (max. acc.)         AngularGrid ... Lebedev-110
Angular grid pruning method      GridPruning ... 3 (G Style)
Weight generation scheme         WeightScheme... Becke
Basis function cutoff            BFCut       ...    1.0000e-11
Integration weight cutoff        WCut        ...    1.0000e-14
Grids for H and He will be reduced by one unit

# of grid points (after initial pruning)     ... 105092 (   0.0 sec)
# of grid points (after weights+screening)   ...  92950 (   2.1 sec)
nearest neighbour list constructed           ...    0.0 sec
Grid point re-assignment to atoms done       ...    0.0 sec
Grid point division into batches done        ...    0.1 sec
Reduced shell lists constructed in    1.0 sec
[compute-1-12.local:49129] 3 more processes have sent help message help-mpi-btl-base.txt / btl:no-nics
[compute-1-12.local:49129] Set MCA parameter "orte_base_help_aggregate" to 0 to see all help / error messages

Total number of grid points                  ...    92950
Total number of batches                      ...     1495
Average number of points per batch           ...       62
Average number of grid points per atom       ...     1134
Average number of shells per batch           ...   180.09 (27.71%)
Average number of basis functions per batch  ...   445.85 (27.15%)
Average number of large shells per batch     ...   115.55 (64.17%)
Average number of large basis fcns per batch ...   294.39 (66.03%)
Maximum spatial batch extension              ...  17.04, 11.98, 14.22 au
Average spatial batch extension              ...   0.61,  0.52,  0.53 au

Time for grid setup =    3.343 sec

------------------------------
INITIAL GUESS: MODEL POTENTIAL
------------------------------
Loading Hartree-Fock densities                     ... done
Calculating cut-offs                               ... done
Setting up the integral package                    ... done
Initializing the effective Hamiltonian             ... done
Starting the Coulomb interaction                   ... done (   5.1 sec)
Reading the grid                                   ... done
Mapping shells                                     ... done
Starting the XC term evaluation                    ... done (   2.7 sec)
  promolecular density results
     # of electrons  =    321.988398455
     EX              =   -260.927385166
     EC              =    -10.802969505
     EX+EC           =   -271.730354670
Transforming the Hamiltonian                       ... done (   0.7 sec)
[...]
  39 C     6.0000    0    12.011   12.228435  -14.197161  -23.095139
  40 C     6.0000    0    12.011   10.961449   -8.557307  -18.397602
  41 C     6.0000    0    12.011   10.785805   -6.623136  -16.648530
  42 C     6.0000    0    12.011    9.236907   -3.244776  -12.269424
  43 C     6.0000    0    12.011    9.105358   -1.322024  -10.505138
  44 C     6.0000    0    12.011    5.499639    1.020310   -6.267714
  45 C     6.0000    0    12.011    4.875048    0.516828   -3.767646
  46 H     1.0000    0     1.008    3.727633   -0.349884    3.408872
  47 H     1.0000    0     1.008    4.018308   -2.245622    0.647181
  48 H     1.0000    0     1.008    1.973964    0.437060    0.649907
  49 H     1.0000    0     1.008    9.400989    3.987857   -0.901172
  50 H     1.0000    0     1.008   10.544946    4.809689   -5.358041
  51 H     1.0000    0     1.008   12.022437    4.772028  -12.190860
  52 H     1.0000    0     1.008   12.767751    9.202674  -13.459321
  53 H     1.0000    0     1.008    9.232546   16.692165  -12.427024
  54 H     1.0000    0     1.008    8.316093   15.156542   -9.580651
  55 H     1.0000    0     1.008    6.527119   14.696218  -12.403138
  56 H     1.0000    0     1.008    6.071881   11.432995   -9.497059
  57 H     1.0000    0     1.008    5.314863    7.032077   -8.308945
  58 H     1.0000    0     1.008    7.035069    3.363081  -14.322504
  59 H     1.0000    0     1.008    7.339913   -0.030417  -17.431504
  60 H     1.0000    0     1.008    5.371708   -3.922436  -18.644519
  61 H     1.0000    0     1.008    5.695151   -7.290891  -21.783682
  62 H     1.0000    0     1.008    5.334725  -12.451991  -19.475190
  63 H     1.0000    0     1.008    1.469666  -14.380665  -21.252379
  64 H     1.0000    0     1.008   -1.627438  -16.464427  -28.716240
  65 H     1.0000    0     1.008    1.667639  -16.854222  -29.257857
  66 H     1.0000    0     1.008    0.257471  -13.802182  -29.528566
  67 H     1.0000    0     1.008    4.541678  -13.603246  -28.699829
  68 H     1.0000    0     1.008    8.327571  -11.630687  -26.926467
  69 H     1.0000    0     1.008   13.175374   -7.908999  -23.562594
  70 H     1.0000    0     1.008   17.330781   -9.411740  -25.068887
  71 H     1.0000    0     1.008   21.238665  -16.649762  -26.480156
  72 H     1.0000    0     1.008   18.044500  -17.501976  -27.094938
  73 H     1.0000    0     1.008   19.220154  -17.511930  -23.933522
  74 H     1.0000    0     1.008   14.885184  -17.064916  -24.095143
  75 H     1.0000    0     1.008   10.803131  -15.557306  -22.537288
  76 H     1.0000    0     1.008   12.536034   -9.862267  -18.311136
  77 H     1.0000    0     1.008   12.250989   -6.441527  -15.227605
  78 H     1.0000    0     1.008    9.836699   -5.106064  -11.657890
  79 H     1.0000    0     1.008    9.615446   -1.695937   -8.558992
  80 H     1.0000    0     1.008    4.380586    0.190596   -7.768351
  81 H     1.0000    0     1.008    3.276592   -0.691514   -3.367890

--------------------------------
INTERNAL COORDINATES (ANGSTROEM)
--------------------------------
 C      0   0   0     0.000000000000     0.00000000     0.00000000
 O      1   0   0     1.413711070465     0.00000000     0.00000000
 C      2   1   0     1.357703411381   117.93001810     0.00000000
 C      3   2   1     1.393811403554   116.13235089   179.81675100
 C      4   3   2     1.379026610044   120.36525776   179.40216077
 C      5   4   3     1.395234172948   120.75000755     0.94372185
 N      6   5   4     1.417096022159   120.27670173   179.05875392
 C      7   6   5     1.416895921681   118.76498668   311.58141214
 C      8   7   6     1.395706220838   120.60145294   133.14861840
 C      9   8   7     1.378503247001   120.76530025   180.32761692
 C     10   9   8     1.394644711108   120.37138516     1.09750085
 O     11  10   9     1.357550163455   116.15700797   179.36508654
 C     12  11  10     1.414105716331   117.93201568   179.72032076
 C     11  10   9     1.388603272181   119.36211357   359.59310751
 C      8   7   6     1.386383408398   120.86651784   314.18868929
 C      7   6   5     1.403019890765   120.72255841   133.85535742
 C     16   7   6     1.395335297753   120.97880188   147.01505025
 C     17  16   7     1.383632680960   120.67008181   179.06003162
 C     18  17  16     1.393590512998   121.58920164     0.74041422
 C     19  18  17     1.482294124297   121.35475827   180.10165408
 C     20  19  18     1.394030771658   121.39436368   320.03669405
 C     21  20  19     1.383206818125   121.55287522   179.53968141
 C     22  21  20     1.395752746701   120.66506848     0.66849205
 N     23  22  21     1.403483320005   120.92331321   179.67743121
 C     24  23  22     1.417005078181   120.36950944   327.84687181
 C     25  24  23     1.395266932633   120.64227044   311.17035753
 C     26  25  24     1.378960565080   120.76722161   179.87762347
 C     27  26  25     1.394329301425   120.35972782     1.20488941
 O     28  27  26     1.357483998364   116.16281020   179.49436766
 C     29  28  27     1.414143667289   117.97514549   179.88300666
 C     28  27  26     1.388943318628   119.35890609   359.64510460
 C     25  24  23     1.386360152923   120.81620496   131.96496750
 C     24  23  22     1.416362227826   120.57430244   146.49533672
 C     33  24  23     1.395658886915   120.75687304   313.08182571
 C     34  33  24     1.378997414045   120.77877296   180.16458433
 C     35  34  33     1.394118981849   120.37801100     1.17412845
 O     36  35  34     1.357610530278   116.18495908   179.53759276
 C     37  36  35     1.414167169879   117.95418522   180.51759378
 C     36  35  34     1.389050039899   119.34039246   359.65222602
 C     33  24  23     1.386630995286   120.73854900   134.11655001
 C     23  22  21     1.395627049002   118.17656694   359.70272146
 C     41  23  22     1.383079370698   120.62340016   359.64800337
 C     19  18  17     1.394382458255   117.35128585   359.80150557
 C     43  19  18     1.382660734628   121.59704215   359.50336603
 C      6   5   4     1.386532809670   118.54464212   359.80300857
 C      3   2   1     1.389340665200   124.48081330   359.76975389
 H      1   2   3     1.087694814322   106.18561718   179.95110156
 H      1   2   3     1.094014050387   111.32394775    61.10870740
 H      1   2   3     1.093907532523   111.35106264   298.82879288
 H      4   3   2     1.083168312306   118.79759474     0.10329700
 H      5   4   3     1.083546140209   119.84545636   180.68905868
 H      9   8   7     1.083403711435   119.46761436     0.59144283
 H     10   9   8     1.083134851725   120.76714820   180.11533905
 H     13  12  11     1.087388768414   106.17516594   179.63722966
 H     13  12  11     1.093981227935   111.35289709    60.80152950
 H     13  12  11     1.093866698619   111.31505328   298.49561663
 H     14  11  10     1.081107775328   121.19141782   179.97194248
 H     15   8   7     1.083524518178   119.48551666   359.10797116
 H     17  16   7     1.082926673497   119.69469960   359.64294347
 H     18  17  16     1.084160142608   118.76316883   181.22968087
 H     21  20  19     1.084442952083   119.63891903   359.13485905
 H     22  21  20     1.083183402225   119.70578471   180.25086889
 H     26  25  24     1.083787156079   119.43138265     0.25449276
 H     27  26  25     1.083135022516   120.76902739   180.26798188
 H     30  29  28     1.087372016212   106.17329715   180.28008280
 H     30  29  28     1.093930100241   111.27937006    61.45412007
 H     30  29  28     1.093612003414   111.36031171   299.15700112
 H     31  28  27     1.081347052494   121.14760349   179.97510730
 H     32  25  24     1.083549745018   119.46927728   359.41247545
 H     34  33  24     1.083670063018   119.47911226     0.38971411
 H     35  34  33     1.083178410360   120.75033635   180.11485331
 H     38  37  36     1.087225170865   106.15718606   179.89855574
 H     38  37  36     1.094032393933   111.27132623    61.04753897
 H     38  37  36     1.093734105276   111.34897176   298.78543400
 H     39  36  35     1.081332445590   121.14148325   179.96953942
 H     40  33  24     1.083545543203   119.46263097   359.13139900
 H     41  23  22     1.083161885742   119.69066232   180.09242286
 H     42  41  23     1.084332091955   118.78947801   181.06517229
 H     43  19  18     1.084247693419   119.60643025   179.28186830
 H     44  43  19     1.082873876263   119.68041102   180.33795602
 H     45   6   5     1.083537101557   119.47496594   179.58741026
 H     46   3   2     1.081252288788   121.16501774     0.49625072

---------------------------
INTERNAL COORDINATES (A.U.)
---------------------------
 C      0   0   0     0.000000000000     0.00000000     0.00000000
 O      1   0   0     2.671526755671     0.00000000     0.00000000
 C      2   1   0     2.565687618600   117.93001810     0.00000000
 C      3   2   1     2.633921835054   116.13235089   179.81675100
 C      4   3   2     2.605982624374   120.36525776   179.40216077
 C      5   4   3     2.636610479560   120.75000755     0.94372185
 N      6   5   4     2.677923387349   120.27670173   179.05875392
 C      7   6   5     2.677545252247   118.76498668   311.58141214
 C      8   7   6     2.637502520794   120.60145294   133.14861840
 C      9   8   7     2.604993611553   120.76530025   180.32761692
 C     10   9   8     2.635496558116   120.37138516     1.09750085
 O     11  10   9     2.565398021989   116.15700797   179.36508654
 C     12  11  10     2.672272528279   117.93201568   179.72032076
 C     11  10   9     2.624079893088   119.36211357   359.59310751
 C      8   7   6     2.619884958485   120.86651784   314.18868929
 C      7   6   5     2.651323353989   120.72255841   133.85535742
 C     16   7   6     2.636801577747   120.97880188   147.01505025
 C     17  16   7     2.614686836958   120.67008181   179.06003162
 C     18  17  16     2.633504412398   121.58920164     0.74041422
 C     19  18  17     2.801129944842   121.35475827   180.10165408
 C     20  19  18     2.634336380692   121.39436368   320.03669405
 C     21  20  19     2.613882072829   121.55287522   179.53968141
 C     22  21  20     2.637590441932   120.66506848     0.66849205
 N     23  22  21     2.652199108336   120.92331321   179.67743121
 C     24  23  22     2.677751528138   120.36950944   327.84687181
 C     25  24  23     2.636672386392   120.64227044   311.17035753
 C     26  25  24     2.605857817479   120.76722161   179.87762347
 C     27  26  25     2.634900520195   120.35972782     1.20488941
 O     28  27  26     2.565272988088   116.16281020   179.49436766
 C     29  28  27     2.672344245195   117.97514549   179.88300666
 C     28  27  26     2.624722487746   119.35890609   359.64510460
 C     25  24  23     2.619841012005   120.81620496   131.96496750
 C     24  23  22     2.676536717022   120.57430244   146.49533672
 C     33  24  23     2.637413072642   120.75687304   313.08182571
 C     34  33  24     2.605927451931   120.77877296   180.16458433
 C     35  34  33     2.634503073796   120.37801100     1.17412845
 O     36  35  34     2.565512098752   116.18495908   179.53759276
 C     37  36  35     2.672388658654   117.95418522   180.51759378
 C     36  35  34     2.624924161722   119.34039246   359.65222602
 C     33  24  23     2.620352829897   120.73854900   134.11655001
 C     23  22  21     2.637352907706   118.17656694   359.70272146
 C     41  23  22     2.613641232095   120.62340016   359.64800337
 C     19  18  17     2.635000972046   117.35128585   359.80150557
 C     43  19  18     2.612850124573   121.59704215   359.50336603
 C      6   5   4     2.620167285972   118.54464212   359.80300857
 C      3   2   1     2.625473363948   124.48081330   359.76975389
 H      1   2   3     2.055445316355   106.18561718   179.95110156
 H      1   2   3     2.067386941894   111.32394775    61.10870740
 H      1   2   3     2.067185652301   111.35106264   298.82879288
 H      4   3   2     2.046891467199   118.79759474     0.10329700
 H      5   4   3     2.047605458462   119.84545636   180.68905868
 H      9   8   7     2.047336307087   119.46761436     0.59144283
 H     10   9   8     2.046828235865   120.76714820   180.11533905
 H     13  12  11     2.054866973405   106.17516594   179.63722966
 H     13  12  11     2.067324916448   111.35289709    60.80152950
 H     13  12  11     2.067108487407   111.31505328   298.49561663
 H     14  11  10     2.042997616623   121.19141782   179.97194248
 H     15   8   7     2.047564598746   119.48551666   359.10797116
 H     17  16   7     2.046434836027   119.69469960   359.64294347
 H     18  17  16     2.048765754843   118.76316883   181.22968087
 H     21  20  19     2.049300187299   119.63891903   359.13485905
 H     22  21  20     2.046919983014   119.70578471   180.25086889
 H     26  25  24     2.048060912450   119.43138265     0.25449276
 H     27  26  25     2.046828558615   120.76902739   180.26798188
 H     30  29  28     2.054835316330   106.17329715   180.28008280
 H     30  29  28     2.067228299109   111.27937006    61.45412007
 H     30  29  28     2.066627183222   111.36031171   299.15700112
 H     31  28  27     2.043449784936   121.14760349   179.97510730
 H     32  25  24     2.047612270564   119.46927728   359.41247545
 H     34  33  24     2.047839638633   119.47911226     0.38971411
 H     35  34  33     2.046910549756   120.75033635   180.11485331
 H     38  37  36     2.054557818840   106.15718606   179.89855574
 H     38  37  36     2.067421606171   111.27132623    61.04753897
 H     38  37  36     2.066857922302   111.34897176   298.78543400
 H     39  36  35     2.043422181888   121.14148325   179.96953942
 H     40  33  24     2.047604330284   119.46263097   359.13139900
 H     41  23  22     2.046879322753   119.69066232   180.09242286
 H     42  41  23     2.049090692017   118.78947801   181.06517229
 H     43  19  18     2.048931201898   119.60643025   179.28186830
 H     44  43  19     2.046335063715   119.68041102   180.33795602
 H     45   6   5     2.047588377885   119.47496594   179.58741026
 H     46   3   2     2.043270707484   121.16501774     0.49625072

--------------------------------------------------------------------------
[[12249,1],2]: A high-performance Open MPI point-to-point messaging module
was unable to find any relevant network interfaces:

Module: OpenFabrics (openib)
  Host: compute-0-2

Another transport will be used instead, although this may result in
lower performance.

NOTE: You can disable this warning by setting the MCA parameter
btl_base_warn_component_unused to 0.
--------------------------------------------------------------------------


           ************************************************************
           *        Program running with 4 parallel MPI-processes     *
           *              working on a common directory               *
           ************************************************************
[compute-0-2.local:11648] 3 more processes have sent help message help-mpi-btl-base.txt / btl:no-nics
[compute-0-2.local:11648] Set MCA parameter "orte_base_help_aggregate" to 0 to see all help / error messages
--------------------------------------------------------------------------
[[12238,1],0]: A high-performance Open MPI point-to-point messaging module
was unable to find any relevant network interfaces:

Module: OpenFabrics (openib)
  Host: compute-0-2

Another transport will be used instead, although this may result in
lower performance.

NOTE: You can disable this warning by setting the MCA parameter
btl_base_warn_component_unused to 0.
--------------------------------------------------------------------------


           ************************************************************
           *        Program running with 4 parallel MPI-processes     *
           *              working on a common directory               *
           ************************************************************

Diagonalization of the overlap matrix:
Smallest eigenvalue                        ... 5.655e-06
Time for diagonalization                   ...    1.295 sec
Threshold for overlap eigenvalues          ... 1.000e-08
Number of eigenvalues below threshold      ... 0
Time for construction of square roots      ...    0.918 sec
Total time needed                          ...    2.226 sec

[compute-0-2.local:11671] 3 more processes have sent help message help-mpi-btl-base.txt / btl:no-nics
[compute-0-2.local:11671] Set MCA parameter "orte_base_help_aggregate" to 0 to see all help / error messages
-------------------
DFT GRID GENERATION
-------------------

General Integration Accuracy     IntAcc      ...  4.340
Radial Grid Type                 RadialGrid  ... Gauss-Chebyshev
Angular Grid (max. acc.)         AngularGrid ... Lebedev-110
Angular grid pruning method      GridPruning ... 3 (G Style)
Weight generation scheme         WeightScheme... Becke
Basis function cutoff            BFCut       ...    1.0000e-11
Integration weight cutoff        WCut        ...    1.0000e-14
Grids for H and He will be reduced by one unit

# of grid points (after initial pruning)     ... 105092 (   0.0 sec)
# of grid points (after weights+screening)   ...  92575 (   2.3 sec)
nearest neighbour list constructed           ...    0.0 sec
Grid point re-assignment to atoms done       ...    0.0 sec
Grid point division into batches done        ...    0.1 sec
Reduced shell lists constructed in    1.2 sec

Total number of grid points                  ...    92575
Total number of batches                      ...     1487
Average number of points per batch           ...       62
Average number of grid points per atom       ...     1129
Average number of shells per batch           ...   183.54 (28.24%)
Average number of basis functions per batch  ...   453.94 (27.65%)
Average number of large shells per batch     ...   117.61 (64.08%)
Average number of large basis fcns per batch ...   299.49 (65.98%)
Maximum spatial batch extension              ...  14.00, 14.11, 16.44 au
Average spatial batch extension              ...   0.60,  0.55,  0.57 au

Time for grid setup =    3.684 sec


--------------------
CPCM SOLVATION MODEL
--------------------
CPCM parameters:
  Epsilon                                         ...       3.0000
  Refrac                                          ...       1.3300
  Rsolv                                           ...       1.3000
  Surface type                                    ...    GEPOL SES
  Epsilon function type                           ...         CPCM
Radii:
 Radius for C  used is    3.7795 Bohr (=   2.0000 Ang.)
 Radius for O  used is    3.2503 Bohr (=   1.7200 Ang.)
 Radius for N  used is    3.4582 Bohr (=   1.8300 Ang.)
 Radius for H  used is    2.4566 Bohr (=   1.3000 Ang.)
Calculating surface                               ...        done! (  0.5s)
GEPOL surface points                              ...         2691
GEPOL Volume                                      ...    4884.4547
GEPOL Surface-area                                ...    2347.7481
Calculating surface distance matrix               ...        done! (  0.1s)
Performing Cholesky decomposition & store         ...        done! (  0.7s)
Overall time for CPCM initialization              ...                 1.2s
--------------
SCF ITERATIONS
--------------
ITER       Energy         Delta-E        Max-DP      RMS-DP      [F,P]     Damp
               ***  Starting incremental Fock matrix formation  ***
                      *** Initiating the SOSCF procedure ***
                      *** Re-Reading the Fockian *** 
                      *** Removing any level shift *** 
ITER      Energy       Delta-E        Grad      Rot      Max-DP    RMS-DP
  0  -1956.43152520 -1956.4315252038  0.000487  0.000487  0.001294  0.000016
               *** Restarting incremental Fock matrix formation ***
  1  -1956.43172865  -0.0002034473  0.000273  0.000462  0.000588  0.000006
