Warning: no access to tty (Bad file descriptor).
Thus no job control in this shell.

                                 *****************
                                 * O   R   C   A *
                                 *****************

           --- An Ab Initio, DFT and Semiempirical electronic structure package ---

                  #######################################################
                  #                        -***-                        #
                  #          Department of theory and spectroscopy      #
                  #               Directorship: Frank Neese             #
                  #        Max Planck Institute fuer Kohlenforschung    #
                  #                Kaiser Wilhelm Platz 1               #
                  #                 D-45470 Muelheim/Ruhr               #
                  #                      Germany                        #
                  #                                                     #
                  #                  All rights reserved                #
                  #                        -***-                        #
                  #######################################################


                         Program Version 4.2.1 -  RELEASE  -


 With contributions from (in alphabetic order):
   Daniel Aravena         : Magnetic Suceptibility
   Michael Atanasov       : Ab Initio Ligand Field Theory (pilot matlab implementation)
   Alexander A. Auer      : GIAO ZORA, VPT2
   Ute Becker             : Parallelization
   Giovanni Bistoni       : ED, misc. LED, open-shell LED, HFLD
   Martin Brehm           : Molecular dynamics
   Dmytro Bykov           : SCF Hessian
   Vijay G. Chilkuri      : MRCI spin determinant printing, contributions to CSF-ICE
   Dipayan Datta          : RHF DLPNO-CCSD density
   Achintya Kumar Dutta   : EOM-CC, STEOM-CC
   Dmitry Ganyushin       : Spin-Orbit,Spin-Spin,Magnetic field MRCI
   Miquel Garcia          : C-PCM Hessian, Gaussian charge scheme
   Yang Guo               : DLPNO-NEVPT2, CIM, IAO-localization
   Andreas Hansen         : Spin unrestricted coupled pair/coupled cluster methods
   Benjamin Helmich-Paris : CASSCF linear response (MC-RPA)
   Lee Huntington         : MR-EOM, pCC
   Robert Izsak           : Overlap fitted RIJCOSX, COSX-SCS-MP3, EOM
   Christian Kollmar      : KDIIS, OOCD, Brueckner-CCSD(T), CCSD density
   Simone Kossmann        : Meta GGA functionals, TD-DFT gradient, OOMP2, MP2 Hessian
   Martin Krupicka        : AUTO-CI
   Lucas Lang             : DCDCAS
   Dagmar Lenk            : GEPOL surface, SMD
   Dimitrios Liakos       : Extrapolation schemes; Compound Job, initial MDCI parallelization
   Dimitrios Manganas     : Further ROCIS development; embedding schemes
   Dimitrios Pantazis     : SARC Basis sets
   Taras Petrenko         : DFT Hessian,TD-DFT gradient, ASA, ECA, R-Raman, ABS, FL, XAS/XES, NRVS
   Peter Pinski           : DLPNO-MP2, DLPNO-MP2 Gradient
   Christoph Reimann      : Effective Core Potentials
   Marius Retegan         : Local ZFS, SOC
   Christoph Riplinger    : Optimizer, TS searches, QM/MM, DLPNO-CCSD(T), (RO)-DLPNO pert. Triples
   Tobias Risthaus        : Range-separated hybrids, TD-DFT gradient, RPA, STAB
   Michael Roemelt        : Original ROCIS implementation
   Masaaki Saitow         : Open-shell DLPNO-CCSD energy and density
   Barbara Sandhoefer     : DKH picture change effects
   Avijit Sen             : IP-ROCIS
   Kantharuban Sivalingam : CASSCF convergence, NEVPT2, FIC-MRCI
   Bernardo de Souza      : ESD, SOC TD-DFT
   Georgi Stoychev        : AutoAux, RI-MP2 NMR
   Willem Van den Heuvel  : Paramagnetic NMR
   Boris Wezisla          : Elementary symmetry handling
   Frank Wennmohs         : Technical directorship


 We gratefully acknowledge several colleagues who have allowed us to
 interface, adapt or use parts of their codes:
   Stefan Grimme, W. Hujo, H. Kruse,             : VdW corrections, initial TS optimization,
                  C. Bannwarth                     DFT functionals, gCP, sTDA/sTD-DF
   Ed Valeev, F. Pavosevic, A. Kumar             : LibInt (2-el integral package), F12 methods
   Garnet Chan, S. Sharma, J. Yang, R. Olivares  : DMRG
   Ulf Ekstrom                                   : XCFun DFT Library
   Mihaly Kallay                                 : mrcc  (arbitrary order and MRCC methods)
   Andreas Klamt, Michael Diedenhofen            : otool_cosmo (COSMO solvation model)
   Jiri Pittner, Ondrej Demel                    : Mk-CCSD
   Frank Weinhold                                : gennbo (NPA and NBO analysis)
   Christopher J. Cramer and Donald G. Truhlar   : smd solvation model
   Lars Goerigk                                  : TD-DFT with DH, B97 family of functionals
   V. Asgeirsson, H. Jonsson                     : NEB implementation
   FAccTs GmbH                                   : IRC, NEB, NEB-TS, Multilevel, MM, QM/MM, CI optimization
   S Lehtola, MJT Oliveira, MAL Marques          : LibXC Library


 Your calculation uses the libint2 library for the computation of 2-el integrals
 For citations please refer to: http://libint.valeyev.net

 Your ORCA version has been built with support for libXC version: 4.2.3
 For citations please refer to: https://tddft.org/programs/libxc/

 This ORCA versions uses:
   CBLAS   interface :  Fast vector & matrix operations
   LAPACKE interface :  Fast linear algebra routines
   SCALAPACK package :  Parallel linear algebra routines


Your calculation utilizes the atom-pairwise dispersion correction
with the zero-damping scheme (D30)
Cite in your paper:
S.Grimme, J.Antony, S.Ehrlich and H.Krieg, J.Chem.Phys., 132, (2010), 154104 
   

XCFun DFT library Copyright 2009-2010 Ulf Ekstrom and contributors.
See http://admol.org/xcfun for more information. This is free soft-
ware; see the source code for copying conditions. There is ABSOLUTELY
NO WARRANTY; not even for MERCHANTABILITY or FITNESS FOR A PARTICULAR
PURPOSE. For details see the documentation. Scientific users of this 
library should cite U. Ekstrom, L. Visscher, R. Bast, A. J. Thorvald-
sen and K. Ruud; J.Chem.Theor.Comp. 2010, DOI: 10.1021/ct100117s
XCFun Version 0.99 
----- Orbital basis set information -----
Your calculation utilizes the basis: def2-TZVP
   F. Weigend and R. Ahlrichs, Phys. Chem. Chem. Phys. 7, 3297 (2005).

----- AuxJ basis set information -----
Your calculation utilizes the auxiliary basis: def2/J
   F. Weigend, Phys. Chem. Chem. Phys. 8, 1057 (2006).

================================================================================
                                        WARNINGS
                       Please study these warnings very carefully!
================================================================================


WARNING: Geometry Optimization
  ===> : Switching off AutoStart
         For restart on a previous wavefunction, please use MOREAD

INFO   : the flag for use of LIBINT has been found!

================================================================================
                                       INPUT FILE
================================================================================
NAME = DQ.inp
|  1> # avogadro generated ORCA input file 
|  2> # Basic Mode
|  3> # 
|  4> ! wB97X-D3 OPT def2-TZVP def2/J CPCM
|  5> %cpcm
|  6>   epsilon 3
|  7> end
|  8> %pal
|  9>  nprocs 4
| 10> end
| 11> 
| 12> * xyz 0 1
| 13>    C        2.69581        6.93099        0.68865
| 14>    C        1.38458        7.29440        0.95731
| 15>    C        3.02440        5.59161        0.49358
| 16>    H        3.46332        7.69197        0.62535
| 17>    C        0.41064        6.30709        1.05254
| 18>    H        1.12696        8.33404        1.11363
| 19>    C        2.01806        4.59213        0.55161
| 20>    H        4.05725        5.38747        0.26742
| 21>    N        0.72819        4.98981        0.86462
| 22>    H       -0.60002        6.60359        1.30807
| 23>    C        2.27895        3.25942        0.31727
| 24>    C       -0.31197        3.98403        1.12869
| 25>    C       -0.15918        2.86340        0.14245
| 26>    H       -1.33751        4.41519        1.10405
| 27>    H       -0.13961        3.55424        2.14019
| 28>    N        1.22441        2.36804        0.20204
| 29>    H       -0.33816        3.29179       -0.86849
| 30>    H       -0.90766        2.05864        0.31674
| 31>    C        3.59643        2.74932        0.17926
| 32>    C        1.43545        1.02833        0.02311
| 33>    C        3.80523        1.38471       -0.00570
| 34>    H        4.48271        3.35760        0.24352
| 35>    C        2.72481        0.51764       -0.07260
| 36>    H        0.60149        0.34337       -0.07681
| 37>    H        4.81258        0.99750       -0.09214
| 38>    H        2.88377       -0.54277       -0.22059
| 39> *
| 40> 
| 41> 
| 42>                          ****END OF INPUT****
================================================================================

                       *****************************
                       * Geometry Optimization Run *
                       *****************************

Geometry optimization settings:
Update method            Update   .... BFGS
Choice of coordinates    CoordSys .... Z-matrix Internals
Initial Hessian          InHess   .... Almoef's Model

Convergence Tolerances:
Energy Change            TolE     ....  5.0000e-06 Eh
Max. Gradient            TolMAXG  ....  3.0000e-04 Eh/bohr
RMS Gradient             TolRMSG  ....  1.0000e-04 Eh/bohr
Max. Displacement        TolMAXD  ....  4.0000e-03 bohr
RMS Displacement         TolRMSD  ....  2.0000e-03 bohr
Strict Convergence                ....  False
------------------------------------------------------------------------------
                        ORCA OPTIMIZATION COORDINATE SETUP
------------------------------------------------------------------------------

The optimization will be done in new redundant internal coordinates
Making redundant internal coordinates   ...  (new redundants) done
Evaluating the initial hessian          ...  (Almloef) done
Evaluating the coordinates              ...  done
Calculating the B-matrix                .... done
Calculating the G-matrix                .... done
Diagonalizing the G-matrix              .... done
Small eigenvalue found = 2.889e-02
The first mode is                       ....   77
The number of degrees of freedom        ....   72

    -----------------------------------------------------------------
                    Redundant Internal Coordinates


    -----------------------------------------------------------------
         Definition                    Initial Value    Approx d2E/dq
    -----------------------------------------------------------------
      1. B(C   1,C   0)                  1.3869         0.631888   
      2. B(C   2,C   0)                  1.3928         0.618345   
      3. B(H   3,C   0)                  1.0827         0.369932   
      4. B(C   4,C   1)                  1.3901         0.624541   
      5. B(H   5,C   1)                  1.0824         0.370254   
      6. B(C   6,C   2)                  1.4195         0.560577   
      7. B(H   7,C   2)                  1.0768         0.377926   
      8. B(N   8,C   6)                  1.3856         0.568714   
      9. B(N   8,C   4)                  1.3680         0.606739   
     10. B(H   9,C   4)                  1.0838         0.368384   
     11. B(C  10,C   6)                  1.3781         0.652772   
     12. B(C  11,N   8)                  1.4708         0.415873   
     13. B(C  12,C  11)                  1.5006         0.416169   
     14. B(H  13,C  11)                  1.1128         0.331214   
     15. B(H  14,C  11)                  1.1125         0.331585   
     16. B(N  15,C  12)                  1.4708         0.415876   
     17. B(N  15,C  10)                  1.3856         0.568713   
     18. B(H  16,C  12)                  1.1125         0.331590   
     19. B(H  17,C  12)                  1.1128         0.331214   
     20. B(C  18,C  10)                  1.4195         0.560610   
     21. B(C  19,N  15)                  1.3680         0.606740   
     22. B(C  20,C  18)                  1.3928         0.618340   
     23. B(H  21,C  18)                  1.0769         0.377910   
     24. B(C  22,C  20)                  1.3869         0.631867   
     25. B(C  22,C  19)                  1.3901         0.624537   
     26. B(H  23,C  19)                  1.0838         0.368383   
     27. B(H  24,C  20)                  1.0827         0.369939   
     28. B(H  25,C  22)                  1.0824         0.370265   
     29. A(C   1,C   0,H   3)          119.8261         0.355667   
     30. A(C   2,C   0,H   3)          120.0313         0.354362   
     31. A(C   1,C   0,C   2)          120.1417         0.435343   
     32. A(C   4,C   1,H   5)          120.3658         0.355014   
     33. A(C   0,C   1,C   4)          119.3110         0.436125   
     34. A(C   0,C   1,H   5)          120.3083         0.355719   
     35. A(C   6,C   2,H   7)          123.7156         0.349795   
     36. A(C   0,C   2,H   7)          115.9756         0.355650   
     37. A(C   0,C   2,C   6)          120.2719         0.426082   
     38. A(N   8,C   4,H   9)          120.8160         0.350804   
     39. A(C   1,C   4,H   9)          118.3713         0.354710   
     40. A(C   1,C   4,N   8)          120.7883         0.430119   
     41. A(C   2,C   6,C  10)          122.6669         0.430241   
     42. A(C   2,C   6,N   8)          117.8463         0.417037   
     43. A(N   8,C   6,C  10)          119.4859         0.428539   
     44. A(C   4,N   8,C   6)          121.5670         0.420217   
     45. A(C   4,N   8,C  11)          118.0121         0.397565   
     46. A(C   6,N   8,C  11)          120.1747         0.393078   
     47. A(C   6,C  10,N  15)          119.4852         0.428539   
     48. A(N  15,C  10,C  18)          117.8467         0.417041   
     49. A(C   6,C  10,C  18)          122.6673         0.430246   
     50. A(H  13,C  11,H  14)          108.2173         0.283392   
     51. A(C  12,C  11,H  14)          107.0552         0.325680   
     52. A(N   8,C  11,H  14)          108.5341         0.323694   
     53. A(C  12,C  11,H  13)          111.6318         0.325620   
     54. A(N   8,C  11,H  13)          112.5094         0.323635   
     55. A(N   8,C  11,C  12)          108.7033         0.374677   
     56. A(N  15,C  12,H  17)          112.5090         0.323635   
     57. A(C  11,C  12,H  17)          111.6327         0.325620   
     58. A(N  15,C  12,H  16)          108.5337         0.323695   
     59. A(C  11,C  12,H  16)          107.0554         0.325680   
     60. A(C  11,C  12,N  15)          108.7033         0.374678   
     61. A(H  16,C  12,H  17)          108.2169         0.283392   
     62. A(C  10,N  15,C  12)          120.1752         0.393078   
     63. A(C  12,N  15,C  19)          118.0122         0.397565   
     64. A(C  10,N  15,C  19)          121.5665         0.420217   
     65. A(C  20,C  18,H  21)          115.9741         0.355646   
     66. A(C  10,C  18,H  21)          123.7164         0.349796   
     67. A(C  10,C  18,C  20)          120.2727         0.426086   
     68. A(C  22,C  19,H  23)          118.3708         0.354709   
     69. A(N  15,C  19,H  23)          120.8160         0.350804   
     70. A(N  15,C  19,C  22)          120.7888         0.430119   
     71. A(C  22,C  20,H  24)          119.8260         0.355666   
     72. A(C  18,C  20,H  24)          120.0321         0.354363   
     73. A(C  18,C  20,C  22)          120.1410         0.435340   
     74. A(C  20,C  22,H  25)          120.3081         0.355719   
     75. A(C  19,C  22,H  25)          120.3664         0.355016   
     76. A(C  19,C  22,C  20)          119.3107         0.436122   
     77. D(H   5,C   1,C   0,C   2)    179.7326         0.027695   
     78. D(H   5,C   1,C   0,H   3)     -0.6073         0.027695   
     79. D(C   4,C   1,C   0,C   2)      1.1272         0.027695   
     80. D(C   4,C   1,C   0,H   3)   -179.2127         0.027695   
     81. D(C   6,C   2,C   0,H   3)   -178.8655         0.026449   
     82. D(C   6,C   2,C   0,C   1)      0.7940         0.026449   
     83. D(H   7,C   2,C   0,H   3)     -0.9899         0.026449   
     84. D(H   7,C   2,C   0,C   1)    178.6695         0.026449   
     85. D(H   9,C   4,C   1,C   0)    177.2243         0.027015   
     86. D(H   9,C   4,C   1,H   5)     -1.3802         0.027015   
     87. D(N   8,C   4,C   1,H   5)   -179.6017         0.027015   
     88. D(N   8,C   4,C   1,C   0)     -0.9971         0.027015   
     89. D(C  10,C   6,C   2,C   0)    177.5271         0.021527   
     90. D(N   8,C   6,C   2,C   0)     -2.8077         0.021527   
     91. D(C  10,C   6,C   2,H   7)     -0.1768         0.021527   
     92. D(N   8,C   6,C   2,H   7)    179.4885         0.021527   
     93. D(C  11,N   8,C   6,C  10)      8.4746         0.025878   
     94. D(C   4,N   8,C   6,C  10)   -177.3393         0.025878   
     95. D(C  11,N   8,C   4,C   1)    173.1834         0.029712   
     96. D(C   4,N   8,C   6,C   2)      2.9844         0.025878   
     97. D(C   6,N   8,C   4,C   1)     -1.1239         0.029712   
     98. D(C  11,N   8,C   6,C   2)   -171.2017         0.025878   
     99. D(C   6,N   8,C   4,H   9)   -179.3017         0.029712   
    100. D(C  11,N   8,C   4,H   9)     -4.9944         0.029712   
    101. D(C  18,C  10,C   6,N   8)   -170.8333         0.029687   
    102. D(C  18,C  10,C   6,C   2)      8.8267         0.029687   
    103. D(N  15,C  10,C   6,C   2)   -170.8334         0.029687   
    104. D(N  15,C  10,C   6,N   8)      9.5066         0.029687   
    105. D(H  13,C  11,N   8,C   4)     20.5279         0.014750   
    106. D(C  12,C  11,N   8,C   6)    -40.9171         0.014750   
    107. D(C  12,C  11,N   8,C   4)    144.6932         0.014750   
    108. D(H  14,C  11,N   8,C   6)     75.1921         0.014750   
    109. D(H  14,C  11,N   8,C   4)    -99.1976         0.014750   
    110. D(H  13,C  11,N   8,C   6)   -165.0824         0.014750   
    111. D(H  17,C  12,C  11,H  13)    -56.8814         0.013709   
    112. D(H  17,C  12,C  11,N   8)    178.4341         0.013709   
    113. D(H  16,C  12,C  11,H  14)    179.6342         0.013709   
    114. D(H  16,C  12,C  11,H  13)     61.3765         0.013709   
    115. D(H  16,C  12,C  11,N   8)    -63.3080         0.013709   
    116. D(N  15,C  12,C  11,H  14)    -63.3084         0.013709   
    117. D(N  15,C  12,C  11,H  13)    178.4339         0.013709   
    118. D(H  17,C  12,C  11,H  14)     61.3763         0.013709   
    119. D(N  15,C  12,C  11,N   8)     53.7494         0.013709   
    120. D(C  19,N  15,C  12,H  17)     20.5268         0.014750   
    121. D(C  19,N  15,C  12,H  16)    -99.1978         0.014750   
    122. D(C  19,N  15,C  12,C  11)    144.6931         0.014750   
    123. D(C  10,N  15,C  12,H  17)   -165.0830         0.014750   
    124. D(C  10,N  15,C  12,H  16)     75.1924         0.014750   
    125. D(C  10,N  15,C  12,C  11)    -40.9168         0.014750   
    126. D(C  19,N  15,C  10,C  18)      2.9845         0.025878   
    127. D(C  19,N  15,C  10,C   6)   -177.3391         0.025878   
    128. D(C  12,N  15,C  10,C  18)   -171.2021         0.025878   
    129. D(C  12,N  15,C  10,C   6)      8.4743         0.025878   
    130. D(H  21,C  18,C  10,N  15)    179.4886         0.021530   
    131. D(H  21,C  18,C  10,C   6)     -0.1768         0.021530   
    132. D(C  20,C  18,C  10,N  15)     -2.8077         0.021530   
    133. D(C  20,C  18,C  10,C   6)    177.5269         0.021530   
    134. D(H  23,C  19,N  15,C  12)     -4.9935         0.029712   
    135. D(H  23,C  19,N  15,C  10)   -179.3013         0.029712   
    136. D(C  22,C  19,N  15,C  12)    173.1836         0.029712   
    137. D(C  22,C  19,N  15,C  10)     -1.1242         0.029712   
    138. D(C  22,C  20,C  18,H  21)    178.6696         0.026449   
    139. D(C  22,C  20,C  18,C  10)      0.7942         0.026449   
    140. D(H  24,C  20,C  18,H  21)     -0.9907         0.026449   
    141. D(H  24,C  20,C  18,C  10)   -178.8661         0.026449   
    142. D(H  25,C  22,C  20,H  24)     -0.6062         0.027693   
    143. D(H  25,C  22,C  20,C  18)    179.7327         0.027693   
    144. D(C  19,C  22,C  20,H  24)   -179.2122         0.027693   
    145. D(C  19,C  22,C  20,C  18)      1.1267         0.027693   
    146. D(H  25,C  22,C  19,H  23)     -1.3810         0.027014   
    147. D(H  25,C  22,C  19,N  15)   -179.6018         0.027014   
    148. D(C  20,C  22,C  19,H  23)    177.2242         0.027014   
    149. D(C  20,C  22,C  19,N  15)     -0.9966         0.027014   
    -----------------------------------------------------------------

Number of atoms                         .... 26
Number of degrees of freedom            .... 149

         *************************************************************
         *                GEOMETRY OPTIMIZATION CYCLE   1            *
         *************************************************************
---------------------------------
CARTESIAN COORDINATES (ANGSTROEM)
---------------------------------
  C      2.695810    6.930990    0.688650
  C      1.384580    7.294400    0.957310
  C      3.024400    5.591610    0.493580
  H      3.463320    7.691970    0.625350
  C      0.410640    6.307090    1.052540
  H      1.126960    8.334040    1.113630
  C      2.018060    4.592130    0.551610
  H      4.057250    5.387470    0.267420
  N      0.728190    4.989810    0.864620
  H     -0.600020    6.603590    1.308070
  C      2.278950    3.259420    0.317270
  C     -0.311970    3.984030    1.128690
  C     -0.159180    2.863400    0.142450
  H     -1.337510    4.415190    1.104050
  H     -0.139610    3.554240    2.140190
  N      1.224410    2.368040    0.202040
  H     -0.338160    3.291790   -0.868490
  H     -0.907660    2.058640    0.316740
  C      3.596430    2.749320    0.179260
  C      1.435450    1.028330    0.023110
  C      3.805230    1.384710   -0.005700
  H      4.482710    3.357600    0.243520
  C      2.724810    0.517640   -0.072600
  H      0.601490    0.343370   -0.076810
  H      4.812580    0.997500   -0.092140
  H      2.883770   -0.542770   -0.220590

----------------------------
CARTESIAN COORDINATES (A.U.)
----------------------------
  NO LB      ZA    FRAG     MASS         X           Y           Z
   0 C     6.0000    0    12.011    5.094343   13.097673    1.301360
   1 C     6.0000    0    12.011    2.616477   13.784418    1.809054
   2 C     6.0000    0    12.011    5.715288   10.566612    0.932731
   3 H     1.0000    0     1.008    6.544726   14.535717    1.181740
   4 C     6.0000    0    12.011    0.775997   11.918673    1.989012
   5 H     1.0000    0     1.008    2.129646   15.749053    2.104456
   6 C     6.0000    0    12.011    3.813581    8.677868    1.042392
   7 H     1.0000    0     1.008    7.667091   10.180843    0.505351
   8 N     7.0000    0    14.007    1.376080    9.429374    1.633895
   9 H     1.0000    0     1.008   -1.133873   12.478977    2.471894
  10 C     6.0000    0    12.011    4.306591    6.159411    0.599553
  11 C     6.0000    0    12.011   -0.589538    7.528726    2.132915
  12 C     6.0000    0    12.011   -0.300807    5.411042    0.269191
  13 H     1.0000    0     1.008   -2.527528    8.343500    2.086352
  14 H     1.0000    0     1.008   -0.263825    6.716540    4.044373
  15 N     7.0000    0    14.007    2.313800    4.474947    0.381800
  16 H     1.0000    0     1.008   -0.639030    6.220582   -1.641208
  17 H     1.0000    0     1.008   -1.715229    3.890266    0.598552
  18 C     6.0000    0    12.011    6.796268    5.195462    0.338752
  19 C     6.0000    0    12.011    2.712607    1.943262    0.043672
  20 C     6.0000    0    12.011    7.190843    2.616723   -0.010771
  21 H     1.0000    0     1.008    8.471094    6.344944    0.460186
  22 C     6.0000    0    12.011    5.149145    0.978198   -0.137194
  23 H     1.0000    0     1.008    1.136651    0.648875   -0.145150
  24 H     1.0000    0     1.008    9.094458    1.885002   -0.174119
  25 H     1.0000    0     1.008    5.449536   -1.025687   -0.416855

--------------------------------
INTERNAL COORDINATES (ANGSTROEM)
--------------------------------
 C      0   0   0     0.000000000000     0.00000000     0.00000000
 C      1   0   0     1.386927949318     0.00000000     0.00000000
 C      1   2   0     1.392825357825   120.14169995     0.00000000
 H      1   2   3     1.082667562320   119.82609908   179.66014792
 C      2   1   3     1.390111115199   119.31104153     1.12718048
 H      2   1   3     1.082430291705   120.30831312   179.73255197
 C      3   1   2     1.419523845133   120.27194989     0.79395884
 H      3   1   2     1.076847532244   115.97563417   178.66950783
 N      5   2   1     1.367983379760   120.78834458   359.00288536
 H      5   2   1     1.083808777645   118.37131976   177.22432921
 C      7   3   1     1.378076475309   122.66691922   177.52707356
 C      9   5   2     1.470802229703   118.01208722   173.18340375
 C     12   9   5     1.500608449463   108.70330051   144.69323667
 H     12   9   5     1.112761594772   112.50936737    20.52793130
 H     12   9   5     1.112456589580   108.53412209   260.80238939
 N     11   7   3     1.385601266202   119.48516911   189.16656483
 H     13  12   9     1.112452927588   107.05541888   296.69201601
 H     13  12   9     1.112761417421   111.63265383   178.43410669
 C     11   7   3     1.419507774019   122.66732795     8.82669458
 C     16  11   7     1.367982715753   121.56645469   182.66090345
 C     19  11   7     1.392827373977   120.27272857   177.52685907
 H     19  11   7     1.076859389335   123.71636181   359.82315556
 C     21  19  11     1.386936686118   120.14095736     0.79420086
 H     20  16  11     1.083809710973   120.81601349   180.69865641
 H     21  19  11     1.082662218885   120.03214131   181.13387299
 H     23  21  19     1.082422602222   120.30812302   179.73273997

---------------------------
INTERNAL COORDINATES (A.U.)
---------------------------
 C      0   0   0     0.000000000000     0.00000000     0.00000000
 C      1   0   0     2.620913991692     0.00000000     0.00000000
 C      1   2   0     2.632058478670   120.14169995     0.00000000
 H      1   2   3     2.045945186865   119.82609908   179.66014792
 C      2   1   3     2.626929303446   119.31104153     1.12718048
 H      2   1   3     2.045496810382   120.30831312   179.73255197
 C      3   1   2     2.682511307871   120.27194989     0.79395884
 H      3   1   2     2.034946923930   115.97563417   178.66950783
 N      5   2   1     2.585113943503   120.78834458   359.00288536
 H      5   2   1     2.048101771289   118.37131976   177.22432921
 C      7   3   1     2.604187129933   122.66691922   177.52707356
 C      9   5   2     2.779413411300   118.01208722   173.18340375
 C     12   9   5     2.835739003733   108.70330051   144.69323667
 H     12   9   5     2.102814666465   112.50936737    20.52793130
 H     12   9   5     2.102238290182   108.53412209   260.80238939
 N     11   7   3     2.618406923936   119.48516911   189.16656483
 H     13  12   9     2.102231370021   107.05541888   296.69201601
 H     13  12   9     2.102814331319   111.63265383   178.43410669
 C     11   7   3     2.682480937868   122.66732795     8.82669458
 C     16  11   7     2.585112688712   121.56645469   182.66090345
 C     19  11   7     2.632062288645   120.27272857   177.52685907
 H     19  11   7     2.034969330586   123.71636181   359.82315556
 C     21  19  11     2.620930501851   120.14095736     0.79420086
 H     20  16  11     2.048103535024   120.81601349   180.69865641
 H     21  19  11     2.045935089235   120.03214131   181.13387299
 H     23  21  19     2.045482279365   120.30812302   179.73273997

---------------------
BASIS SET INFORMATION
---------------------
There are 3 groups of distinct atoms

 Group   1 Type C   : 11s6p2d1f contracted to 5s3p2d1f pattern {62111/411/11/1}
 Group   2 Type H   : 5s1p contracted to 3s1p pattern {311/1}
 Group   3 Type N   : 11s6p2d1f contracted to 5s3p2d1f pattern {62111/411/11/1}

Atom   0C    basis set group =>   1
Atom   1C    basis set group =>   1
Atom   2C    basis set group =>   1
Atom   3H    basis set group =>   2
Atom   4C    basis set group =>   1
Atom   5H    basis set group =>   2
Atom   6C    basis set group =>   1
Atom   7H    basis set group =>   2
Atom   8N    basis set group =>   3
Atom   9H    basis set group =>   2
Atom  10C    basis set group =>   1
Atom  11C    basis set group =>   1
Atom  12C    basis set group =>   1
Atom  13H    basis set group =>   2
Atom  14H    basis set group =>   2
Atom  15N    basis set group =>   3
Atom  16H    basis set group =>   2
Atom  17H    basis set group =>   2
Atom  18C    basis set group =>   1
Atom  19C    basis set group =>   1
Atom  20C    basis set group =>   1
Atom  21H    basis set group =>   2
Atom  22C    basis set group =>   1
Atom  23H    basis set group =>   2
Atom  24H    basis set group =>   2
Atom  25H    basis set group =>   2
---------------------------------
AUXILIARY/J BASIS SET INFORMATION
---------------------------------
There are 3 groups of distinct atoms

 Group   1 Type C   : 12s5p4d2f1g contracted to 6s4p3d1f1g pattern {711111/2111/211/2/1}
 Group   2 Type H   : 5s2p1d contracted to 3s1p1d pattern {311/2/1}
 Group   3 Type N   : 12s5p4d2f1g contracted to 6s4p3d1f1g pattern {711111/2111/211/2/1}

Atom   0C    basis set group =>   1
Atom   1C    basis set group =>   1
Atom   2C    basis set group =>   1
Atom   3H    basis set group =>   2
Atom   4C    basis set group =>   1
Atom   5H    basis set group =>   2
Atom   6C    basis set group =>   1
Atom   7H    basis set group =>   2
Atom   8N    basis set group =>   3
Atom   9H    basis set group =>   2
Atom  10C    basis set group =>   1
Atom  11C    basis set group =>   1
Atom  12C    basis set group =>   1
Atom  13H    basis set group =>   2
Atom  14H    basis set group =>   2
Atom  15N    basis set group =>   3
Atom  16H    basis set group =>   2
Atom  17H    basis set group =>   2
Atom  18C    basis set group =>   1
Atom  19C    basis set group =>   1
Atom  20C    basis set group =>   1
Atom  21H    basis set group =>   2
Atom  22C    basis set group =>   1
Atom  23H    basis set group =>   2
Atom  24H    basis set group =>   2
Atom  25H    basis set group =>   2
--------------------------------------------------------------------------
[[58871,1],2]: A high-performance Open MPI point-to-point messaging module
was unable to find any relevant network interfaces:

Module: OpenFabrics (openib)
  Host: compute-1-11

Another transport will be used instead, although this may result in
lower performance.

NOTE: You can disable this warning by setting the MCA parameter
btl_base_warn_component_unused to 0.
--------------------------------------------------------------------------


           ************************************************************
           *        Program running with 4 parallel MPI-processes     *
           *              working on a common directory               *
           ************************************************************
------------------------------------------------------------------------------
                           ORCA GTO INTEGRAL CALCULATION
------------------------------------------------------------------------------

                         BASIS SET STATISTICS AND STARTUP INFO

 # of primitive gaussian shells          ...  352
 # of primitive gaussian functions       ...  740
 # of contracted shells                  ...  202
 # of contracted basis functions         ...  506
 Highest angular momentum                ...    3
 Maximum contraction depth               ...    6
 Integral package used                   ... LIBINT
 Integral threshhold            Thresh   ...  2.500e-11
 Primitive cut-off              TCut     ...  2.500e-12


------------------------------ INTEGRAL EVALUATION ----------------------------


 * One electron integrals 
 Pre-screening matrix                    ... done
 Shell pair data                         ... done (   0.008 sec)

[compute-1-11.local:20681] 3 more processes have sent help message help-mpi-btl-base.txt / btl:no-nics
[compute-1-11.local:20681] Set MCA parameter "orte_base_help_aggregate" to 0 to see all help / error messages
--------------------------------------------------------------------------
[[58849,1],0]: A high-performance Open MPI point-to-point messaging module
was unable to find any relevant network interfaces:

Module: OpenFabrics (openib)
  Host: compute-1-11

Another transport will be used instead, although this may result in
lower performance.

NOTE: You can disable this warning by setting the MCA parameter
btl_base_warn_component_unused to 0.
--------------------------------------------------------------------------


           ************************************************************
           *        Program running with 4 parallel MPI-processes     *
           *              working on a common directory               *
           ************************************************************
-------------------------------------------------------------------------------
                                 ORCA SCF
-------------------------------------------------------------------------------

------------
SCF SETTINGS
------------
Hamiltonian:
 Density Functional     Method          .... DFT(GTOs)
 Exchange Functional    Exchange        .... WB97X-D3
 Correlation Functional Correlation     .... WB97X-D3
 Gradients option       PostSCFGGA      .... off
 Hybrid DFT is turned on
   Fraction HF Exchange ScalHFX         ....  0.195728
   Scaling of DF-GGA-X  ScalDFX         ....  0.000000
   Scaling of DF-GGA-C  ScalDFC         ....  1.000000
   Scaling of DF-LDA-C  ScalLDAC        ....  1.000000
   Perturbative correction              ....  0.000000
   Density functional embedding theory  .... OFF
 Long-range corrected/Screened/Range-Separated Hybrid DFT is turned on
   Amount of maximum screened exact exchange              ....  0.804272
   Range separation parameter mu (erf(mu*r12)/r12)        ....  0.250000


General Settings:
 Integral files         IntName         .... DQ
 Hartree-Fock type      HFTyp           .... RHF
 Total Charge           Charge          ....    0
 Multiplicity           Mult            ....    1
 Number of Electrons    NEL             ....   98
 Basis Dimension        Dim             ....  506
 Nuclear Repulsion      ENuc            ....    855.4572164268 Eh

Convergence Acceleration:
 DIIS                   CNVDIIS         .... on
   Start iteration      DIISMaxIt       ....    12
   Startup error        DIISStart       ....  0.200000
   # of expansion vecs  DIISMaxEq       ....     5
   Bias factor          DIISBfac        ....   1.050
   Max. coefficient     DIISMaxC        ....  10.000
 Newton-Raphson         CNVNR           .... off
 SOSCF                  CNVSOSCF        .... on
   Start iteration      SOSCFMaxIt      ....   150
   Startup grad/error   SOSCFStart      ....  0.003300
 Level Shifting         CNVShift        .... on
   Level shift para.    LevelShift      ....    0.2500
   Turn off err/grad.   ShiftErr        ....    0.0010
 Zerner damping         CNVZerner       .... off
 Static damping         CNVDamp         .... on
   Fraction old density DampFac         ....    0.7000
   Max. Damping (<1)    DampMax         ....    0.9800
   Min. Damping (>=0)   DampMin         ....    0.0000
   Turn off err/grad.   DampErr         ....    0.1000
 Fernandez-Rico         CNVRico         .... off

SCF Procedure:
 Maximum # iterations   MaxIter         ....   125
 SCF integral mode      SCFMode         .... Direct
   Integral package                     .... LIBINT
 Reset frequency        DirectResetFreq ....    20
 Integral Threshold     Thresh          ....  2.500e-11 Eh
 Primitive CutOff       TCut            ....  2.500e-12 Eh

Convergence Tolerance:
 Convergence Check Mode ConvCheckMode   .... Total+1el-Energy
 Convergence forced     ConvForced      .... 0
 Energy Change          TolE            ....  1.000e-08 Eh
 1-El. energy change                    ....  1.000e-05 Eh
 Orbital Gradient       TolG            ....  1.000e-05
 Orbital Rotation angle TolX            ....  1.000e-05
 DIIS Error             TolErr          ....  5.000e-07


Diagonalization of the overlap matrix:
Smallest eigenvalue                        ... 1.131e-05
Time for diagonalization                   ...    0.166 sec
Threshold for overlap eigenvalues          ... 1.000e-08
Number of eigenvalues below threshold      ... 0
Time for construction of square roots      ...    0.054 sec
Total time needed                          ...    0.221 sec

-------------------
DFT GRID GENERATION
-------------------

General Integration Accuracy     IntAcc      ...  4.340
Radial Grid Type                 RadialGrid  ... Gauss-Chebyshev
Angular Grid (max. acc.)         AngularGrid ... Lebedev-110
Angular grid pruning method      GridPruning ... 3 (G Style)
Weight generation scheme         WeightScheme... Becke
Basis function cutoff            BFCut       ...    1.0000e-11
Integration weight cutoff        WCut        ...    1.0000e-14
Grids for H and He will be reduced by one unit

# of grid points (after initial pruning)     ...  32804 (   0.0 sec)
# of grid points (after weights+screening)   ...  29600 (   0.1 sec)
nearest neighbour list constructed           ...    0.0 sec
Grid point re-assignment to atoms done       ...    0.0 sec
Grid point division into batches done        ...    0.0 sec
Reduced shell lists constructed in    0.2 sec

Total number of grid points                  ...    29600
Total number of batches                      ...      477
Average number of points per batch           ...       62
Average number of grid points per atom       ...     1138
Average number of shells per batch           ...   114.53 (56.70%)
Average number of basis functions per batch  ...   289.24 (57.16%)
Average number of large shells per batch     ...    83.54 (72.94%)
Average number of large basis fcns per batch ...   212.81 (73.58%)
Maximum spatial batch extension              ...  18.46, 20.05, 20.86 au
Average spatial batch extension              ...   0.79,  0.79,  1.00 au

Time for grid setup =    0.325 sec

------------------------------
INITIAL GUESS: MODEL POTENTIAL
------------------------------
Loading Hartree-Fock densities                     ... done
Calculating cut-offs                               ... done
Setting up the integral package                    ... done
Initializing the effective Hamiltonian             ... done
Starting the Coulomb interaction                   ... done (   0.4 sec)
Reading the grid                                   ... done
Mapping shells                                     ... done
Starting the XC term evaluation                    ... done (   0.6 sec)
  promolecular density results
     # of electrons  =     97.989332311
     EX              =    -78.080048305
     EC              =     -3.294112108
     EX+EC           =    -81.374160414
Transforming the Hamiltonian                       ... done (   0.0 sec)
Diagonalizing the Hamiltonian                      ... done (   0.1 sec)
Back transforming the eigenvectors                 ... done (   0.0 sec)
Now organizing SCF variables                       ... done
                      ------------------
                      INITIAL GUESS DONE (   1.5 sec)
                      ------------------

--------------------
CPCM SOLVATION MODEL
--------------------
CPCM parameters:
  Epsilon                                         ...       3.0000
  Refrac                                          ...       1.3300
  Rsolv                                           ...       1.3000
  Surface type                                    ...    GEPOL SES
  Epsilon function type                           ...         CPCM
Radii:
 Radius for C  used is    3.7795 Bohr (=   2.0000 Ang.)
 Radius for H  used is    2.4566 Bohr (=   1.3000 Ang.)
 Radius for N  used is    3.4582 Bohr (=   1.8300 Ang.)
Calculating surface                               ...        done! (  0.1s)
GEPOL surface points                              ...          755
GEPOL Volume                                      ...    1505.7500
GEPOL Surface-area                                ...     776.3071
Calculating surface distance matrix               ...        done! (  0.0s)
Performing Cholesky decomposition & store         ...        done! (  0.0s)
Overall time for CPCM initialization              ...                 0.1s
--------------
SCF ITERATIONS
--------------
ITER       Energy         Delta-E        Max-DP      RMS-DP      [F,P]     Damp
               ***  Starting incremental Fock matrix formation  ***
[compute-1-11.local:20703] 3 more processes have sent help message help-mpi-btl-base.txt / btl:no-nics
[compute-1-11.local:20703] Set MCA parameter "orte_base_help_aggregate" to 0 to see all help / error messages
  0   -573.6696673964   0.000000000000 0.04018406  0.00068374  0.1605966 0.7000
  1   -573.7812747749  -0.111607378530 0.02989581  0.00056951  0.0993678 0.7000
                               ***Turning on DIIS***
  2   -573.8427293242  -0.061454549263 0.07072276  0.00132036  0.0539130 0.0000
  3   -573.9463814225  -0.103652098294 0.01555880  0.00033825  0.0387842 0.0000
  4   -573.9595323423  -0.013150919872 0.00829334  0.00015265  0.0055536 0.0000
                      *** Initiating the SOSCF procedure ***
                           *** Shutting down DIIS ***
                      *** Re-Reading the Fockian *** 
                      *** Removing any level shift *** 
ITER      Energy       Delta-E        Grad      Rot      Max-DP    RMS-DP
  5   -573.96006039  -0.0005280489  0.002894  0.002894  0.005275  0.000079
               *** Restarting incremental Fock matrix formation ***
  6   -573.96020201  -0.0001416171  0.001936  0.005441  0.003127  0.000058
  7   -573.96026552  -0.0000635119  0.000834  0.005953  0.002837  0.000057
  8   -573.96027960  -0.0000140820  0.000512  0.001025  0.001249  0.000019
  9   -573.96028648  -0.0000068736  0.000066  0.000237  0.000121  0.000004
 10   -573.96028670  -0.0000002206  0.000035  0.000147  0.000104  0.000002
 11   -573.96028679  -0.0000000941  0.000027  0.000186  0.000134  0.000002
 12   -573.96028681  -0.0000000167  0.000016  0.000189  0.000114  0.000001
 13   -573.96028681  -0.0000000076  0.000004  0.000043  0.000024  0.000000
                 **** Energy Check signals convergence ****
              ***Rediagonalizing the Fockian in SOSCF/NRSCF***

               *****************************************************
               *                     SUCCESS                       *
               *           SCF CONVERGED AFTER  14 CYCLES          *
               *****************************************************

Setting up the final grid:

General Integration Accuracy     IntAcc      ...  4.670
Radial Grid Type                 RadialGrid  ... Gauss-Chebyshev
Angular Grid (max. acc.)         AngularGrid ... Lebedev-302
Angular grid pruning method      GridPruning ... 3 (G Style)
Weight generation scheme         WeightScheme... Becke
Basis function cutoff            BFCut       ...    1.0000e-11
Integration weight cutoff        WCut        ...    1.0000e-14
Grids for H and He will be reduced by one unit

# of grid points (after initial pruning)     ... 127696 (   0.0 sec)
# of grid points (after weights+screening)   ... 113158 (   0.3 sec)
nearest neighbour list constructed           ...    0.0 sec
Grid point re-assignment to atoms done       ...    0.0 sec
Grid point division into batches done        ...    0.5 sec
Reduced shell lists constructed in    1.1 sec

Total number of grid points                  ...   113158
Total number of batches                      ...     1780
Average number of points per batch           ...       63
Average number of grid points per atom       ...     4352
Average number of shells per batch           ...   105.37 (52.16%)
Average number of basis functions per batch  ...   264.22 (52.22%)
Average number of large shells per batch     ...    75.37 (71.53%)
Average number of large basis fcns per batch ...   189.97 (71.90%)
Maximum spatial batch extension              ...  16.30, 17.33, 16.58 au
Average spatial batch extension              ...   0.53,  0.52,  0.59 au

Final grid set up in    1.6 sec
Final integration                            ... done (   2.3 sec)
Change in XC energy                          ...     0.004274328
Integrated number of electrons               ...    97.999744518
Previous integrated no of electrons          ...    97.999944991

----------------
TOTAL SCF ENERGY
----------------

Total Energy       :         -573.95601249 Eh          -15618.13711 eV

Components:
Nuclear Repulsion  :          855.45721643 Eh           23278.17430 eV
Electronic Energy  :        -1429.41322892 Eh          -38896.31141 eV
One Electron Energy:        -2472.83263640 Eh          -67289.19695 eV
Two Electron Energy:         1043.41940748 Eh           28392.88554 eV
CPCM Dielectric    :           -0.01034448 Eh              -0.28149 eV

Virial components:
Potential Energy   :        -1145.26266000 Eh          -31164.18134 eV
Kinetic Energy     :          571.30664751 Eh           15546.04422 eV
Virial Ratio       :            2.00463738


DFT components:
N(Alpha)           :       48.999872259249 electrons
N(Beta)            :       48.999872259249 electrons
N(Total)           :       97.999744518497 electrons
E(XC)              :      -57.359265387880 Eh       
DFET-embed. en.    :        0.000000000000 Eh       
CPCM Solvation Model Properties:
Surface-charge          :           -0.03508786
Charge-correction       :           -0.00002022 Eh              -0.00055 eV
Free-energy (cav+disp)  :            0.00444838 Eh               0.12105 eV
Corrected G(solv)       :         -573.95158434 Eh          -15618.01661 eV

---------------
SCF CONVERGENCE
---------------

  Last Energy change         ...   -8.1565e-09  Tolerance :   1.0000e-08
  Last MAX-Density change    ...    1.2388e-05  Tolerance :   1.0000e-07
  Last RMS-Density change    ...    1.8678e-07  Tolerance :   5.0000e-09
  Last Orbital Gradient      ...    2.1625e-06  Tolerance :   1.0000e-05
  Last Orbital Rotation      ...    1.6380e-05  Tolerance :   1.0000e-05

             **** THE GBW FILE WAS UPDATED (DQ.gbw) ****
             **** DENSITY FILE WAS UPDATED (DQ.scfp) ****
             **** ENERGY FILE WAS UPDATED (DQ.en.tmp) ****
             **** THE GBW FILE WAS UPDATED (DQ.gbw) ****
             **** DENSITY FILE WAS UPDATED (DQ.scfp) ****
----------------
ORBITAL ENERGIES
----------------

  NO   OCC          E(Eh)            E(eV) 
   0   2.0000     -14.461126      -393.5072 
   1   2.0000     -14.460839      -393.4994 
   2   2.0000     -10.323220      -280.9091 
   3   2.0000     -10.322819      -280.8982 
   4   2.0000     -10.318616      -280.7838 
   5   2.0000     -10.318397      -280.7779 
   6   2.0000     -10.296228      -280.1746 
   7   2.0000     -10.295599      -280.1575 
   8   2.0000     -10.273002      -279.5426 
   9   2.0000     -10.272785      -279.5367 
  10   2.0000     -10.266791      -279.3736 
  11   2.0000     -10.266453      -279.3644 
  12   2.0000     -10.255568      -279.0682 
  13   2.0000     -10.255497      -279.0663 
  14   2.0000      -1.114495       -30.3270 
  15   2.0000      -1.075979       -29.2789 
  16   2.0000      -0.947703       -25.7883 
  17   2.0000      -0.916197       -24.9310 
  18   2.0000      -0.913257       -24.8510 
  19   2.0000      -0.869792       -23.6682 
  20   2.0000      -0.848011       -23.0756 
  21   2.0000      -0.774440       -21.0736 
  22   2.0000      -0.767440       -20.8831 
  23   2.0000      -0.754132       -20.5210 
  24   2.0000      -0.722425       -19.6582 
  25   2.0000      -0.679236       -18.4830 
  26   2.0000      -0.652843       -17.7648 
  27   2.0000      -0.614544       -16.7226 
  28   2.0000      -0.613202       -16.6861 
  29   2.0000      -0.591743       -16.1022 
  30   2.0000      -0.587727       -15.9929 
  31   2.0000      -0.554268       -15.0824 
  32   2.0000      -0.549486       -14.9523 
  33   2.0000      -0.546402       -14.8684 
  34   2.0000      -0.535950       -14.5839 
  35   2.0000      -0.524937       -14.2843 
  36   2.0000      -0.523755       -14.2521 
  37   2.0000      -0.494790       -13.4639 
  38   2.0000      -0.492027       -13.3887 
  39   2.0000      -0.457135       -12.4393 
  40   2.0000      -0.456298       -12.4165 
  41   2.0000      -0.449698       -12.2369 
  42   2.0000      -0.435041       -11.8381 
  43   2.0000      -0.434888       -11.8339 
  44   2.0000      -0.388941       -10.5836 
  45   2.0000      -0.378724       -10.3056 
  46   2.0000      -0.366371        -9.9694 
  47   2.0000      -0.312907        -8.5146 
  48   2.0000      -0.181458        -4.9377 
  49   0.0000       0.039688         1.0800 
  50   0.0000       0.043036         1.1711 
  51   0.0000       0.100713         2.7406 
  52   0.0000       0.122081         3.3220 
  53   0.0000       0.140723         3.8293 
  54   0.0000       0.144712         3.9378 
  55   0.0000       0.153793         4.1849 
  56   0.0000       0.159420         4.3380 
  57   0.0000       0.167008         4.5445 
  58   0.0000       0.176544         4.8040 
  59   0.0000       0.186593         5.0775 
  60   0.0000       0.188050         5.1171 
  61   0.0000       0.199580         5.4308 
  62   0.0000       0.200932         5.4677 
  63   0.0000       0.203286         5.5317 
  64   0.0000       0.216962         5.9038 
  65   0.0000       0.221361         6.0235 
  66   0.0000       0.228660         6.2222 
  67   0.0000       0.231744         6.3061 
  68   0.0000       0.248431         6.7602 
  69   0.0000       0.256901         6.9906 
  70   0.0000       0.262570         7.1449 
  71   0.0000       0.274233         7.4623 
  72   0.0000       0.279691         7.6108 
  73   0.0000       0.283797         7.7225 
  74   0.0000       0.302381         8.2282 
  75   0.0000       0.307568         8.3694 
  76   0.0000       0.313181         8.5221 
  77   0.0000       0.317726         8.6458 
  78   0.0000       0.318935         8.6787 
  79   0.0000       0.321439         8.7468 
  80   0.0000       0.333571         9.0769 
  81   0.0000       0.336262         9.1501 
  82   0.0000       0.342058         9.3079 
  83   0.0000       0.346729         9.4350 
  84   0.0000       0.350755         9.5445 
  85   0.0000       0.363130         9.8813 
  86   0.0000       0.372395        10.1334 
  87   0.0000       0.385732        10.4963 
  88   0.0000       0.393201        10.6995 
  89   0.0000       0.398011        10.8304 
  90   0.0000       0.400011        10.8848 
  91   0.0000       0.411421        11.1953 
  92   0.0000       0.412245        11.2178 
  93   0.0000       0.417647        11.3648 
  94   0.0000       0.434497        11.8233 
  95   0.0000       0.441594        12.0164 
  96   0.0000       0.445353        12.1187 
  97   0.0000       0.453768        12.3477 
  98   0.0000       0.460952        12.5431 
  99   0.0000       0.464113        12.6292 
 100   0.0000       0.472372        12.8539 
 101   0.0000       0.478150        13.0111 
 102   0.0000       0.491342        13.3701 
 103   0.0000       0.494449        13.4546 
 104   0.0000       0.496947        13.5226 
 105   0.0000       0.497753        13.5445 
 106   0.0000       0.500415        13.6170 
 107   0.0000       0.505800        13.7635 
 108   0.0000       0.506826        13.7914 
 109   0.0000       0.517009        14.0685 
 110   0.0000       0.517938        14.0938 
 111   0.0000       0.521469        14.1899 
 112   0.0000       0.530995        14.4491 
 113   0.0000       0.545224        14.8363 
 114   0.0000       0.546619        14.8743 
 115   0.0000       0.563511        15.3339 
 116   0.0000       0.566072        15.4036 
 117   0.0000       0.568832        15.4787 
 118   0.0000       0.583829        15.8868 
 119   0.0000       0.594101        16.1663 
 120   0.0000       0.598645        16.2900 
 121   0.0000       0.605741        16.4831 
 122   0.0000       0.608099        16.5472 
 123   0.0000       0.626529        17.0487 
 124   0.0000       0.638816        17.3831 
 125   0.0000       0.640857        17.4386 
 126   0.0000       0.654752        17.8167 
 127   0.0000       0.682736        18.5782 
 128   0.0000       0.683603        18.6018 
 129   0.0000       0.691140        18.8069 
 130   0.0000       0.703349        19.1391 
 131   0.0000       0.714156        19.4332 
 132   0.0000       0.724181        19.7060 
 133   0.0000       0.731650        19.9092 
 134   0.0000       0.746988        20.3266 
 135   0.0000       0.757108        20.6020 
 136   0.0000       0.760869        20.7043 
 137   0.0000       0.771543        20.9948 
 138   0.0000       0.773973        21.0609 
 139   0.0000       0.781285        21.2599 
 140   0.0000       0.787596        21.4316 
 141   0.0000       0.798327        21.7236 
 142   0.0000       0.813177        22.1277 
 143   0.0000       0.813423        22.1344 
 144   0.0000       0.816145        22.2084 
 145   0.0000       0.819539        22.3008 
 146   0.0000       0.846404        23.0318 
 147   0.0000       0.849947        23.1282 
 148   0.0000       0.859302        23.3828 
 149   0.0000       0.860463        23.4144 
 150   0.0000       0.871977        23.7277 
 151   0.0000       0.880163        23.9505 
 152   0.0000       0.889495        24.2044 
 153   0.0000       0.908324        24.7168 
 154   0.0000       0.918228        24.9863 
 155   0.0000       0.920628        25.0516 
 156   0.0000       0.937414        25.5083 
 157   0.0000       0.937661        25.5151 
 158   0.0000       0.945504        25.7285 
 159   0.0000       0.962416        26.1887 
 160   0.0000       0.977302        26.5938 
 161   0.0000       0.991116        26.9696 
 162   0.0000       1.000891        27.2356 
 163   0.0000       1.018654        27.7190 
 164   0.0000       1.022932        27.8354 
 165   0.0000       1.034533        28.1511 
 166   0.0000       1.059142        28.8207 
 167   0.0000       1.071515        29.1574 
 168   0.0000       1.072445        29.1827 
 169   0.0000       1.081559        29.4307 
 170   0.0000       1.100021        29.9331 
 171   0.0000       1.124649        30.6033 
 172   0.0000       1.139481        31.0068 
 173   0.0000       1.142407        31.0865 
 174   0.0000       1.153200        31.3802 
 175   0.0000       1.179320        32.0909 
 176   0.0000       1.193465        32.4758 
 177   0.0000       1.198109        32.6022 
 178   0.0000       1.203294        32.7433 
 179   0.0000       1.218635        33.1608 
 180   0.0000       1.245423        33.8897 
 181   0.0000       1.250302        34.0225 
 182   0.0000       1.275327        34.7034 
 183   0.0000       1.290644        35.1202 
 184   0.0000       1.295268        35.2460 
 185   0.0000       1.296122        35.2693 
 186   0.0000       1.303973        35.4829 
 187   0.0000       1.317009        35.8376 
 188   0.0000       1.322381        35.9838 
 189   0.0000       1.326983        36.1090 
 190   0.0000       1.334047        36.3013 
 191   0.0000       1.355384        36.8819 
 192   0.0000       1.362415        37.0732 
 193   0.0000       1.386855        37.7382 
 194   0.0000       1.404285        38.2125 
 195   0.0000       1.413191        38.4549 
 196   0.0000       1.446136        39.3514 
 197   0.0000       1.447754        39.3954 
 198   0.0000       1.451131        39.4873 
 199   0.0000       1.464936        39.8629 
 200   0.0000       1.470548        40.0157 
 201   0.0000       1.490466        40.5576 
 202   0.0000       1.503186        40.9038 
 203   0.0000       1.505355        40.9628 
 204   0.0000       1.522202        41.4212 
 205   0.0000       1.533868        41.7387 
 206   0.0000       1.540547        41.9204 
 207   0.0000       1.552132        42.2357 
 208   0.0000       1.564693        42.5775 
 209   0.0000       1.585638        43.1474 
 210   0.0000       1.587891        43.2087 
 211   0.0000       1.593067        43.3496 
 212   0.0000       1.607071        43.7306 
 213   0.0000       1.610789        43.8318 
 214   0.0000       1.624607        44.2078 
 215   0.0000       1.625509        44.2323 
 216   0.0000       1.633381        44.4465 
 217   0.0000       1.668900        45.4131 
 218   0.0000       1.672573        45.5130 
 219   0.0000       1.673380        45.5350 
 220   0.0000       1.696815        46.1727 
 221   0.0000       1.706937        46.4481 
 222   0.0000       1.718696        46.7681 
 223   0.0000       1.733927        47.1826 
 224   0.0000       1.739589        47.3366 
 225   0.0000       1.763320        47.9824 
 226   0.0000       1.769575        48.1526 
 227   0.0000       1.772767        48.2394 
 228   0.0000       1.790319        48.7171 
 229   0.0000       1.801962        49.0339 
 230   0.0000       1.805100        49.1193 
 231   0.0000       1.816700        49.4349 
 232   0.0000       1.823128        49.6098 
 233   0.0000       1.830121        49.8001 
 234   0.0000       1.830872        49.8206 
 235   0.0000       1.845279        50.2126 
 236   0.0000       1.859353        50.5956 
 237   0.0000       1.861085        50.6427 
 238   0.0000       1.867018        50.8041 
 239   0.0000       1.885626        51.3105 
 240   0.0000       1.895354        51.5752 
 241   0.0000       1.898987        51.6741 
 242   0.0000       1.910418        51.9851 
 243   0.0000       1.938954        52.7616 
 244   0.0000       1.953606        53.1603 
 245   0.0000       1.977690        53.8157 
 246   0.0000       1.987530        54.0834 
 247   0.0000       2.024700        55.0949 
 248   0.0000       2.026697        55.1492 
 249   0.0000       2.043706        55.6121 
 250   0.0000       2.045815        55.6695 
 251   0.0000       2.081871        56.6506 
 252   0.0000       2.087007        56.7904 
 253   0.0000       2.104280        57.2604 
 254   0.0000       2.121888        57.7395 
 255   0.0000       2.140683        58.2509 
 256   0.0000       2.168694        59.0132 
 257   0.0000       2.187894        59.5356 
 258   0.0000       2.188062        59.5402 
 259   0.0000       2.206519        60.0424 
 260   0.0000       2.214514        60.2600 
 261   0.0000       2.239300        60.9344 
 262   0.0000       2.241228        60.9869 
 263   0.0000       2.250520        61.2398 
 264   0.0000       2.257271        61.4235 
 265   0.0000       2.280155        62.0462 
 266   0.0000       2.305701        62.7413 
 267   0.0000       2.317175        63.0535 
 268   0.0000       2.330078        63.4047 
 269   0.0000       2.333564        63.4995 
 270   0.0000       2.350059        63.9483 
 271   0.0000       2.356638        64.1274 
 272   0.0000       2.399858        65.3034 
 273   0.0000       2.402846        65.3848 
 274   0.0000       2.413288        65.6689 
 275   0.0000       2.441214        66.4288 
 276   0.0000       2.450138        66.6716 
 277   0.0000       2.468395        67.1685 
 278   0.0000       2.485983        67.6470 
 279   0.0000       2.511857        68.3511 
 280   0.0000       2.536082        69.0103 
 281   0.0000       2.544548        69.2407 
 282   0.0000       2.548201        69.3401 
 283   0.0000       2.566733        69.8444 
 284   0.0000       2.594511        70.6002 
 285   0.0000       2.598553        70.7102 
 286   0.0000       2.618005        71.2395 
 287   0.0000       2.619351        71.2762 
 288   0.0000       2.640418        71.8494 
 289   0.0000       2.648215        72.0616 
 290   0.0000       2.658564        72.3432 
 291   0.0000       2.666778        72.5667 
 292   0.0000       2.670915        72.6793 
 293   0.0000       2.686545        73.1046 
 294   0.0000       2.695211        73.3404 
 295   0.0000       2.699298        73.4516 
 296   0.0000       2.705385        73.6173 
 297   0.0000       2.735423        74.4346 
 298   0.0000       2.747225        74.7558 
 299   0.0000       2.747453        74.7620 
 300   0.0000       2.757201        75.0273 
 301   0.0000       2.769168        75.3529 
 302   0.0000       2.770507        75.3893 
 303   0.0000       2.785877        75.8076 
 304   0.0000       2.790332        75.9288 
 305   0.0000       2.795929        76.0811 
 306   0.0000       2.802624        76.2633 
 307   0.0000       2.802902        76.2708 
 308   0.0000       2.816199        76.6327 
 309   0.0000       2.824083        76.8472 
 310   0.0000       2.829872        77.0047 
 311   0.0000       2.860161        77.8289 
 312   0.0000       2.869408        78.0806 
 313   0.0000       2.874382        78.2159 
 314   0.0000       2.875765        78.2535 
 315   0.0000       2.905994        79.0761 
 316   0.0000       2.912142        79.2434 
 317   0.0000       2.924117        79.5693 
 318   0.0000       2.925380        79.6036 
 319   0.0000       2.936462        79.9052 
 320   0.0000       2.943004        80.0832 
 321   0.0000       2.944490        80.1236 
 322   0.0000       2.960314        80.5543 
 323   0.0000       2.971700        80.8641 
 324   0.0000       3.002301        81.6968 
 325   0.0000       3.003725        81.7355 
 326   0.0000       3.007849        81.8477 
 327   0.0000       3.028812        82.4182 
 328   0.0000       3.029012        82.4236 
 329   0.0000       3.045802        82.8805 
 330   0.0000       3.064002        83.3757 
 331   0.0000       3.084903        83.9445 
 332   0.0000       3.090240        84.0897 
 333   0.0000       3.092614        84.1543 
 334   0.0000       3.108546        84.5878 
 335   0.0000       3.108826        84.5955 
 336   0.0000       3.139962        85.4427 
 337   0.0000       3.145283        85.5875 
 338   0.0000       3.154743        85.8449 
 339   0.0000       3.167106        86.1813 
 340   0.0000       3.184618        86.6579 
 341   0.0000       3.192221        86.8647 
 342   0.0000       3.198424        87.0335 
 343   0.0000       3.209191        87.3265 
 344   0.0000       3.217479        87.5520 
 345   0.0000       3.226986        87.8108 
 346   0.0000       3.239911        88.1625 
 347   0.0000       3.242327        88.2282 
 348   0.0000       3.261455        88.7487 
 349   0.0000       3.270501        88.9949 
 350   0.0000       3.273872        89.0866 
 351   0.0000       3.279877        89.2500 
 352   0.0000       3.287336        89.4530 
 353   0.0000       3.304451        89.9187 
 354   0.0000       3.309644        90.0600 
 355   0.0000       3.312521        90.1383 
 356   0.0000       3.316613        90.2496 
 357   0.0000       3.322634        90.4135 
 358   0.0000       3.335387        90.7605 
 359   0.0000       3.339643        90.8763 
 360   0.0000       3.344807        91.0168 
 361   0.0000       3.375553        91.8535 
 362   0.0000       3.375743        91.8586 
 363   0.0000       3.378174        91.9248 
 364   0.0000       3.398644        92.4818 
 365   0.0000       3.409689        92.7823 
 366   0.0000       3.419782        93.0570 
 367   0.0000       3.424384        93.1822 
 368   0.0000       3.429380        93.3182 
 369   0.0000       3.445669        93.7614 
 370   0.0000       3.458049        94.0983 
 371   0.0000       3.465499        94.3010 
 372   0.0000       3.483512        94.7912 
 373   0.0000       3.491658        95.0128 
 374   0.0000       3.505710        95.3952 
 375   0.0000       3.511762        95.5599 
 376   0.0000       3.513043        95.5948 
 377   0.0000       3.525478        95.9331 
 378   0.0000       3.526383        95.9577 
 379   0.0000       3.543896        96.4343 
 380   0.0000       3.544911        96.4619 
 381   0.0000       3.565921        97.0336 
 382   0.0000       3.578366        97.3723 
 383   0.0000       3.593924        97.7956 
 384   0.0000       3.595050        97.8263 
 385   0.0000       3.608209        98.1843 
 386   0.0000       3.630979        98.8040 
 387   0.0000       3.632295        98.8398 
 388   0.0000       3.645277        99.1930 
 389   0.0000       3.663793        99.6969 
 390   0.0000       3.674129        99.9781 
 391   0.0000       3.690152       100.4141 
 392   0.0000       3.713789       101.0573 
 393   0.0000       3.713884       101.0599 
 394   0.0000       3.735521       101.6487 
 395   0.0000       3.737902       101.7135 
 396   0.0000       3.767316       102.5139 
 397   0.0000       3.791574       103.1740 
 398   0.0000       3.833934       104.3267 
 399   0.0000       3.836761       104.4036 
 400   0.0000       3.862905       105.1150 
 401   0.0000       3.864615       105.1615 
 402   0.0000       3.885229       105.7225 
 403   0.0000       3.888224       105.8040 
 404   0.0000       3.905029       106.2613 
 405   0.0000       3.918368       106.6242 
 406   0.0000       3.937854       107.1545 
 407   0.0000       3.964518       107.8800 
 408   0.0000       3.996046       108.7379 
 409   0.0000       4.010932       109.1430 
 410   0.0000       4.011297       109.1529 
 411   0.0000       4.018028       109.3361 
 412   0.0000       4.056256       110.3763 
 413   0.0000       4.079779       111.0164 
 414   0.0000       4.100045       111.5679 
 415   0.0000       4.104153       111.6797 
 416   0.0000       4.148930       112.8981 
 417   0.0000       4.150757       112.9478 
 418   0.0000       4.161743       113.2468 
 419   0.0000       4.177832       113.6846 
 420   0.0000       4.178272       113.6966 
 421   0.0000       4.190328       114.0246 
 422   0.0000       4.199231       114.2669 
 423   0.0000       4.207456       114.4907 
 424   0.0000       4.220663       114.8501 
 425   0.0000       4.257857       115.8622 
 426   0.0000       4.291734       116.7840 
 427   0.0000       4.300626       117.0260 
 428   0.0000       4.307750       117.2198 
 429   0.0000       4.332400       117.8906 
 430   0.0000       4.359477       118.6274 
 431   0.0000       4.367354       118.8418 
 432   0.0000       4.398918       119.7007 
 433   0.0000       4.428235       120.4984 
 434   0.0000       4.447914       121.0339 
 435   0.0000       4.463432       121.4562 
 436   0.0000       4.466523       121.5403 
 437   0.0000       4.485163       122.0475 
 438   0.0000       4.491171       122.2110 
 439   0.0000       4.517979       122.9405 
 440   0.0000       4.539546       123.5273 
 441   0.0000       4.550431       123.8235 
 442   0.0000       4.562206       124.1439 
 443   0.0000       4.572252       124.4173 
 444   0.0000       4.611597       125.4879 
 445   0.0000       4.629591       125.9776 
 446   0.0000       4.670785       127.0985 
 447   0.0000       4.740904       129.0066 
 448   0.0000       4.744645       129.1084 
 449   0.0000       4.784680       130.1978 
 450   0.0000       4.810260       130.8938 
 451   0.0000       4.833586       131.5286 
 452   0.0000       4.863349       132.3385 
 453   0.0000       4.897512       133.2681 
 454   0.0000       4.969316       135.2220 
 455   0.0000       4.982436       135.5790 
 456   0.0000       5.031695       136.9194 
 457   0.0000       5.059008       137.6626 
 458   0.0000       5.068355       137.9169 
 459   0.0000       5.078216       138.1853 
 460   0.0000       5.093400       138.5985 
 461   0.0000       5.123847       139.4270 
 462   0.0000       5.129864       139.5907 
 463   0.0000       5.148411       140.0954 
 464   0.0000       5.166912       140.5988 
 465   0.0000       5.175507       140.8327 
 466   0.0000       5.222345       142.1072 
 467   0.0000       5.224940       142.1779 
 468   0.0000       5.271069       143.4331 
 469   0.0000       5.271946       143.4569 
 470   0.0000       5.301122       144.2509 
 471   0.0000       5.339014       145.2820 
 472   0.0000       5.362421       145.9189 
 473   0.0000       5.380081       146.3994 
 474   0.0000       5.412153       147.2722 
 475   0.0000       5.441497       148.0707 
 476   0.0000       5.448032       148.2485 
 477   0.0000       5.500657       149.6805 
 478   0.0000       5.536510       150.6561 
 479   0.0000       5.545130       150.8907 
 480   0.0000       5.605262       152.5269 
 481   0.0000       5.623388       153.0202 
 482   0.0000       5.726861       155.8358 
 483   0.0000       5.786616       157.4618 
 484   0.0000       5.918818       161.0592 
 485   0.0000       6.002134       163.3264 
 486   0.0000       6.036388       164.2585 
 487   0.0000       6.075920       165.3342 
 488   0.0000       6.094787       165.8476 
 489   0.0000       6.175158       168.0346 
 490   0.0000       6.226188       169.4232 
 491   0.0000       6.499274       176.8542 
 492   0.0000      22.337032       607.8215 
 493   0.0000      22.583194       614.5199 
 494   0.0000      22.597341       614.9049 
 495   0.0000      22.653021       616.4200 
 496   0.0000      22.730491       618.5281 
 497   0.0000      22.772141       619.6615 
 498   0.0000      22.799032       620.3932 
 499   0.0000      22.848874       621.7495 
 500   0.0000      23.053315       627.3126 
 501   0.0000      23.095500       628.4605 
 502   0.0000      23.197630       631.2396 
 503   0.0000      23.560554       641.1153 
 504   0.0000      33.144020       901.8946 
 505   0.0000      33.217512       903.8945 

                    ********************************
                    * MULLIKEN POPULATION ANALYSIS *
                    ********************************

-----------------------
MULLIKEN ATOMIC CHARGES
-----------------------
   0 C :   -0.176422
   1 C :   -0.270300
   2 C :   -0.276208
   3 H :    0.140819
   4 C :   -0.071288
   5 H :    0.149097
   6 C :    0.101034
   7 H :    0.151082
   8 N :   -0.045712
   9 H :    0.174755
  10 C :    0.107128
  11 C :   -0.157880
  12 C :   -0.146161
  13 H :    0.155179
  14 H :    0.124440
  15 N :   -0.055442
  16 H :    0.123999
  17 H :    0.154699
  18 C :   -0.277780
  19 C :   -0.072092
  20 C :   -0.186352
  21 H :    0.149003
  22 C :   -0.273726
  23 H :    0.178838
  24 H :    0.148873
  25 H :    0.150415
Sum of atomic charges:   -0.0000000

--------------------------------
MULLIKEN REDUCED ORBITAL CHARGES
--------------------------------
  0 C s       :     3.187856  s :     3.187856
      pz      :     0.985183  p :     2.888389
      px      :     0.943116
      py      :     0.960091
      dz2     :     0.006556  d :     0.092694
      dxz     :     0.016675
      dyz     :     0.014621
      dx2y2   :     0.023033
      dxy     :     0.031809
      f0      :     0.001334  f :     0.007483
      f+1     :     0.000882
      f-1     :     0.000726
      f+2     :     0.001191
      f-2     :     0.000283
      f+3     :     0.001592
      f-3     :     0.001475
  1 C s       :     3.192792  s :     3.192792
      pz      :     1.098912  p :     2.986841
      px      :     0.917720
      py      :     0.970209
      dz2     :     0.006340  d :     0.083188
      dxz     :     0.021078
      dyz     :     0.006296
      dx2y2   :     0.026197
      dxy     :     0.023276
      f0      :     0.001442  f :     0.007479
      f+1     :     0.000898
      f-1     :     0.000735
      f+2     :     0.000409
      f-2     :     0.000994
      f+3     :     0.001513
      f-3     :     0.001487
  2 C s       :     3.244115  s :     3.244115
      pz      :     0.990634  p :     2.933590
      px      :     0.990806
      py      :     0.952151
      dz2     :     0.005805  d :     0.091187
      dxz     :     0.007598
      dyz     :     0.030215
      dx2y2   :     0.020107
      dxy     :     0.027462
      f0      :     0.001422  f :     0.007316
      f+1     :     0.000685
      f-1     :     0.000748
      f+2     :     0.000439
      f-2     :     0.001014
      f+3     :     0.001603
      f-3     :     0.001404
  3 H s       :     0.836653  s :     0.836653
      pz      :     0.004933  p :     0.022528
      px      :     0.008925
      py      :     0.008671
  4 C s       :     3.141034  s :     3.141034
      pz      :     0.947068  p :     2.796855
      px      :     1.056667
      py      :     0.793120
      dz2     :     0.004957  d :     0.122591
      dxz     :     0.007816
      dyz     :     0.047807
      dx2y2   :     0.036255
      dxy     :     0.025756
      f0      :     0.001806  f :     0.010807
      f+1     :     0.000696
      f-1     :     0.001216
      f+2     :     0.001383
      f-2     :     0.001332
      f+3     :     0.002341
      f-3     :     0.002034
  5 H s       :     0.828160  s :     0.828160
      pz      :     0.005885  p :     0.022743
      px      :     0.004118
      py      :     0.012741
  6 C s       :     3.085682  s :     3.085682
      pz      :     1.055040  p :     2.641109
      px      :     0.757452
      py      :     0.828617
      dz2     :     0.009070  d :     0.158589
      dxz     :     0.027504
      dyz     :     0.039508
      dx2y2   :     0.038811
      dxy     :     0.043696
      f0      :     0.002072  f :     0.013586
      f+1     :     0.001640
      f-1     :     0.001107
      f+2     :     0.001808
      f-2     :     0.001401
      f+3     :     0.003032
      f-3     :     0.002526
  7 H s       :     0.825414  s :     0.825414
      pz      :     0.005510  p :     0.023504
      px      :     0.013743
      py      :     0.004251
  8 N s       :     3.426777  s :     3.426777
      pz      :     1.485929  p :     3.524984
      px      :     1.053413
      py      :     0.985642
      dz2     :     0.007969  d :     0.088929
      dxz     :     0.013461
      dyz     :     0.015342
      dx2y2   :     0.023645
      dxy     :     0.028512
      f0      :     0.000778  f :     0.005022
      f+1     :     0.000667
      f-1     :     0.000651
      f+2     :     0.000531
      f-2     :     0.000535
      f+3     :     0.001006
      f-3     :     0.000854
  9 H s       :     0.803188  s :     0.803188
      pz      :     0.005105  p :     0.022056
      px      :     0.013029
      py      :     0.003922
 10 C s       :     3.081172  s :     3.081172
      pz      :     1.072692  p :     2.641540
      px      :     0.788319
      py      :     0.780529
      dz2     :     0.005616  d :     0.156736
      dxz     :     0.024711
      dyz     :     0.044646
      dx2y2   :     0.034318
      dxy     :     0.047445
      f0      :     0.002234  f :     0.013424
      f+1     :     0.001183
      f-1     :     0.001284
      f+2     :     0.001091
      f-2     :     0.002006
      f+3     :     0.003480
      f-3     :     0.002146
 11 C s       :     3.229531  s :     3.229531
      pz      :     0.994316  p :     2.802880
      px      :     0.931689
      py      :     0.876875
      dz2     :     0.030133  d :     0.117261
      dxz     :     0.012906
      dyz     :     0.028360
      dx2y2   :     0.021495
      dxy     :     0.024367
      f0      :     0.001202  f :     0.008207
      f+1     :     0.000606
      f-1     :     0.001525
      f+2     :     0.000294
      f-2     :     0.001710
      f+3     :     0.001183
      f-3     :     0.001687
 12 C s       :     3.223366  s :     3.223366
      pz      :     1.004771  p :     2.797814
      px      :     0.803832
      py      :     0.989210
      dz2     :     0.027173  d :     0.116864
      dxz     :     0.028373
      dyz     :     0.015932
      dx2y2   :     0.016885
      dxy     :     0.028500
      f0      :     0.001370  f :     0.008117
      f+1     :     0.000455
      f-1     :     0.001334
      f+2     :     0.001099
      f-2     :     0.000967
      f+3     :     0.001703
      f-3     :     0.001190
 13 H s       :     0.824530  s :     0.824530
      pz      :     0.003758  p :     0.020291
      px      :     0.012088
      py      :     0.004445
 14 H s       :     0.854966  s :     0.854966
      pz      :     0.012163  p :     0.020595
      px      :     0.003384
      py      :     0.005048
 15 N s       :     3.430346  s :     3.430346
      pz      :     1.515576  p :     3.531297
      px      :     1.019524
      py      :     0.996197
      dz2     :     0.006339  d :     0.088746
      dxz     :     0.013829
      dyz     :     0.015156
      dx2y2   :     0.027979
      dxy     :     0.025444
      f0      :     0.000834  f :     0.005052
      f+1     :     0.000659
      f-1     :     0.000663
      f+2     :     0.000423
      f-2     :     0.000523
      f+3     :     0.001127
      f-3     :     0.000824
 16 H s       :     0.855370  s :     0.855370
      pz      :     0.012126  p :     0.020631
      px      :     0.003406
      py      :     0.005099
 17 H s       :     0.824778  s :     0.824778
      pz      :     0.003911  p :     0.020523
      px      :     0.008015
      py      :     0.008597
 18 C s       :     3.253897  s :     3.253897
      pz      :     0.997363  p :     2.926348
      px      :     0.926765
      py      :     1.002219
      dz2     :     0.006782  d :     0.090361
      dxz     :     0.015665
      dyz     :     0.020879
      dx2y2   :     0.017641
      dxy     :     0.029394
      f0      :     0.001407  f :     0.007174
      f+1     :     0.000752
      f-1     :     0.000766
      f+2     :     0.000909
      f-2     :     0.000383
      f+3     :     0.001740
      f-3     :     0.001216
 19 C s       :     3.146841  s :     3.146841
      pz      :     0.941363  p :     2.791548
      px      :     1.043130
      py      :     0.807055
      dz2     :     0.006369  d :     0.122977
      dxz     :     0.016943
      dyz     :     0.036888
      dx2y2   :     0.029974
      dxy     :     0.032803
      f0      :     0.001855  f :     0.010727
      f+1     :     0.000662
      f-1     :     0.001262
      f+2     :     0.002243
      f-2     :     0.000346
      f+3     :     0.002448
      f-3     :     0.001911
 20 C s       :     3.173912  s :     3.173912
      pz      :     0.984636  p :     2.912461
      px      :     0.983302
      py      :     0.944523
      dz2     :     0.004316  d :     0.092495
      dxz     :     0.010053
      dyz     :     0.023129
      dx2y2   :     0.025560
      dxy     :     0.029437
      f0      :     0.001477  f :     0.007484
      f+1     :     0.000695
      f-1     :     0.000765
      f+2     :     0.000623
      f-2     :     0.000846
      f+3     :     0.001942
      f-3     :     0.001137
 21 H s       :     0.827495  s :     0.827495
      pz      :     0.005148  p :     0.023502
      px      :     0.011098
      py      :     0.007256
 22 C s       :     3.204179  s :     3.204179
      pz      :     1.103181  p :     2.977747
      px      :     0.905718
      py      :     0.968847
      dz2     :     0.005412  d :     0.084366
      dxz     :     0.021367
      dyz     :     0.007222
      dx2y2   :     0.029713
      dxy     :     0.020652
      f0      :     0.001597  f :     0.007434
      f+1     :     0.000660
      f-1     :     0.000783
      f+2     :     0.000337
      f-2     :     0.001016
      f+3     :     0.001918
      f-3     :     0.001124
 23 H s       :     0.799379  s :     0.799379
      pz      :     0.004635  p :     0.021783
      px      :     0.009508
      py      :     0.007639
 24 H s       :     0.829063  s :     0.829063
[...]
      px      :     0.908417
      py      :     0.962179
      dz2     :     0.005734  d :     0.080510
      dxz     :     0.020172
      dyz     :     0.006572
      dx2y2   :     0.027178
      dxy     :     0.020854
      f0      :     0.001573  f :     0.007285
      f+1     :     0.000675
      f-1     :     0.000863
      f+2     :     0.000256
      f-2     :     0.000974
      f+3     :     0.001856
      f-3     :     0.001088
 23 H s       :     0.812210  s :     0.812210
      pz      :     0.004348  p :     0.021656
      px      :     0.010509
      py      :     0.006799
 24 H s       :     0.829501  s :     0.829501
      pz      :     0.005007  p :     0.022159
      px      :     0.012338
      py      :     0.004814
 25 H s       :     0.821112  s :     0.821112
      pz      :     0.005886  p :     0.022734
      px      :     0.003560
      py      :     0.013287


                     *******************************
                     * LOEWDIN POPULATION ANALYSIS *
                     *******************************

----------------------
LOEWDIN ATOMIC CHARGES
----------------------
   0 C :   -0.167697
   1 C :   -0.221681
   2 C :   -0.133767
   3 H :    0.147385
   4 C :   -0.181945
   5 H :    0.146368
   6 C :   -0.180140
   7 H :    0.152641
   8 N :    0.237233
   9 H :    0.152006
  10 C :   -0.179816
  11 C :   -0.237032
  12 C :   -0.236472
  13 H :    0.145597
  14 H :    0.141160
  15 N :    0.237105
  16 H :    0.140979
  17 H :    0.145583
  18 C :   -0.132862
  19 C :   -0.182492
  20 C :   -0.168358
  21 H :    0.151816
  22 C :   -0.222288
  23 H :    0.152011
  24 H :    0.148115
  25 H :    0.146550

-------------------------------
LOEWDIN REDUCED ORBITAL CHARGES
-------------------------------
  0 C s       :     2.765532  s :     2.765532
      pz      :     0.896337  p :     2.956776
      px      :     1.006277
      py      :     1.054162
      dz2     :     0.027311  d :     0.401380
      dxz     :     0.060674
      dyz     :     0.048288
      dx2y2   :     0.099420
      dxy     :     0.165687
      f0      :     0.003249  f :     0.044009
      f+1     :     0.003569
      f-1     :     0.004047
      f+2     :     0.008526
      f-2     :     0.001683
      f+3     :     0.011734
      f-3     :     0.011202
  1 C s       :     2.762673  s :     2.762673
      pz      :     0.997496  p :     3.046826
      px      :     1.040086
      py      :     1.009244
      dz2     :     0.025961  d :     0.369154
      dxz     :     0.071817
      dyz     :     0.019533
      dx2y2   :     0.138368
      dxy     :     0.113475
      f0      :     0.003517  f :     0.043028
      f+1     :     0.004295
      f-1     :     0.003624
      f+2     :     0.002611
      f-2     :     0.006397
      f+3     :     0.011012
      f-3     :     0.011572
  2 C s       :     2.756496  s :     2.756496
      pz      :     0.912137  p :     2.947024
      px      :     0.980252
      py      :     1.054636
      dz2     :     0.025452  d :     0.387992
      dxz     :     0.021438
      dyz     :     0.085498
      dx2y2   :     0.127395
      dxy     :     0.128210
      f0      :     0.003357  f :     0.042254
      f+1     :     0.003082
      f-1     :     0.004441
      f+2     :     0.002912
      f-2     :     0.006277
      f+3     :     0.010832
      f-3     :     0.011353
  3 H s       :     0.793336  s :     0.793336
      pz      :     0.013696  p :     0.059280
      px      :     0.023623
      py      :     0.021960
  4 C s       :     2.761906  s :     2.761906
      pz      :     0.881827  p :     2.852597
      px      :     1.020356
      py      :     0.950414
      dz2     :     0.030361  d :     0.504387
      dxz     :     0.019303
      dyz     :     0.154209
      dx2y2   :     0.185180
      dxy     :     0.115335
      f0      :     0.004969  f :     0.063055
      f+1     :     0.003218
      f-1     :     0.006846
      f+2     :     0.007503
      f-2     :     0.009500
      f+3     :     0.016289
      f-3     :     0.014729
  5 H s       :     0.792052  s :     0.792052
      pz      :     0.017063  p :     0.061580
      px      :     0.012689
      py      :     0.031828
  6 C s       :     2.689921  s :     2.689921
      pz      :     0.948164  p :     2.836881
      px      :     0.876901
      py      :     1.011816
      dz2     :     0.055969  d :     0.582055
      dxz     :     0.087267
      dyz     :     0.114853
      dx2y2   :     0.163367
      dxy     :     0.160599
      f0      :     0.005862  f :     0.071283
      f+1     :     0.006997
      f-1     :     0.005054
      f+2     :     0.011358
      f-2     :     0.008418
      f+3     :     0.017713
      f-3     :     0.015880
  7 H s       :     0.786820  s :     0.786820
      pz      :     0.014573  p :     0.060539
      px      :     0.033444
      py      :     0.012522
  8 N s       :     2.849096  s :     2.849096
      pz      :     1.325822  p :     3.586436
      px      :     1.129600
      py      :     1.131014
      dz2     :     0.022684  d :     0.306213
      dxz     :     0.040171
      dyz     :     0.048282
      dx2y2   :     0.093700
      dxy     :     0.101376
      f0      :     0.002167  f :     0.021022
      f+1     :     0.001949
      f-1     :     0.002047
      f+2     :     0.002538
      f-2     :     0.002499
      f+3     :     0.005356
      f-3     :     0.004468
  9 H s       :     0.788779  s :     0.788779
      pz      :     0.013557  p :     0.059214
      px      :     0.035624
      py      :     0.010034
 10 C s       :     2.689930  s :     2.689930
      pz      :     0.953417  p :     2.836869
      px      :     0.922621
      py      :     0.960831
      dz2     :     0.050962  d :     0.581780
      dxz     :     0.074169
      dyz     :     0.128615
      dx2y2   :     0.151628
      dxy     :     0.176406
      f0      :     0.006152  f :     0.071236
      f+1     :     0.005536
      f-1     :     0.005619
      f+2     :     0.007650
      f-2     :     0.012273
      f+3     :     0.019712
      f-3     :     0.014294
 11 C s       :     2.771268  s :     2.771268
      pz      :     1.040225  p :     2.950483
      px      :     0.955846
      py      :     0.954412
      dz2     :     0.106632  d :     0.459825
      dxz     :     0.041944
      dyz     :     0.123879
      dx2y2   :     0.085082
      dxy     :     0.102288
      f0      :     0.007027  f :     0.055457
      f+1     :     0.005479
      f-1     :     0.007950
      f+2     :     0.004676
      f-2     :     0.011840
      f+3     :     0.007586
      f-3     :     0.010898
 12 C s       :     2.770993  s :     2.770993
      pz      :     1.045710  p :     2.949995
      px      :     0.890982
      py      :     1.013303
      dz2     :     0.097955  d :     0.459982
      dxz     :     0.091090
      dyz     :     0.082326
      dx2y2   :     0.071317
      dxy     :     0.117293
      f0      :     0.007679  f :     0.055502
      f+1     :     0.005602
      f-1     :     0.006495
      f+2     :     0.009251
      f-2     :     0.007375
      f+3     :     0.010979
      f-3     :     0.008120
 13 H s       :     0.795393  s :     0.795393
      pz      :     0.013001  p :     0.059010
      px      :     0.031492
      py      :     0.014517
 14 H s       :     0.799958  s :     0.799958
      pz      :     0.031888  p :     0.058882
      px      :     0.011475
      py      :     0.015520
 15 N s       :     2.849070  s :     2.849070
      pz      :     1.337010  p :     3.586392
      px      :     1.111433
      py      :     1.137949
      dz2     :     0.017892  d :     0.306386
      dxz     :     0.040826
      dyz     :     0.045887
      dx2y2   :     0.100216
      dxy     :     0.101565
      f0      :     0.002345  f :     0.021048
      f+1     :     0.001705
      f-1     :     0.001964
      f+2     :     0.002243
      f-2     :     0.002658
      f+3     :     0.006430
      f-3     :     0.003703
 16 H s       :     0.800080  s :     0.800080
      pz      :     0.031806  p :     0.058940
      px      :     0.010849
      py      :     0.016286
 17 H s       :     0.795324  s :     0.795324
      pz      :     0.013813  p :     0.059093
      px      :     0.020569
      py      :     0.024711
 18 C s       :     2.756438  s :     2.756438
      pz      :     0.914020  p :     2.946537
      px      :     0.976775
      py      :     1.055742
      dz2     :     0.029540  d :     0.387672
      dxz     :     0.045741
      dyz     :     0.059255
      dx2y2   :     0.091701
      dxy     :     0.161435
      f0      :     0.003240  f :     0.042214
      f+1     :     0.003785
      f-1     :     0.004077
      f+2     :     0.006926
      f-2     :     0.002373
      f+3     :     0.013073
      f-3     :     0.008741
 19 C s       :     2.762146  s :     2.762146
      pz      :     0.879823  p :     2.852692
      px      :     1.065704
      py      :     0.907165
      dz2     :     0.032943  d :     0.504600
      dxz     :     0.052933
      dyz     :     0.119324
      dx2y2   :     0.135466
      dxy     :     0.163934
      f0      :     0.004826  f :     0.063054
      f+1     :     0.003979
      f-1     :     0.006103
      f+2     :     0.015163
      f-2     :     0.002265
      f+3     :     0.017386
      f-3     :     0.013333
 20 C s       :     2.765528  s :     2.765528
      pz      :     0.896618  p :     2.957304
      px      :     0.985934
      py      :     1.074752
      dz2     :     0.024290  d :     0.401507
      dxz     :     0.032460
      dyz     :     0.080912
      dx2y2   :     0.126232
      dxy     :     0.137613
      f0      :     0.003440  f :     0.044019
      f+1     :     0.002832
      f-1     :     0.004515
      f+2     :     0.004943
      f-2     :     0.005340
      f+3     :     0.013779
      f-3     :     0.009169
 21 H s       :     0.787578  s :     0.787578
      pz      :     0.014389  p :     0.060606
      px      :     0.025970
      py      :     0.020246
 22 C s       :     2.762773  s :     2.762773
      pz      :     0.997423  p :     3.047494
      px      :     1.061055
      py      :     0.989016
      dz2     :     0.025487  d :     0.369036
      dxz     :     0.070400
      dyz     :     0.021262
      dx2y2   :     0.150805
      dxy     :     0.101082
      f0      :     0.003543  f :     0.042986
      f+1     :     0.004526
      f-1     :     0.003316
      f+2     :     0.002011
      f-2     :     0.006954
      f+3     :     0.013499
      f-3     :     0.009136
 23 H s       :     0.788788  s :     0.788788
      pz      :     0.013021  p :     0.059201
      px      :     0.027822
      py      :     0.018357
 24 H s       :     0.792731  s :     0.792731
      pz      :     0.014267  p :     0.059154
      px      :     0.031482
      py      :     0.013405
 25 H s       :     0.791817  s :     0.791817
      pz      :     0.017001  p :     0.061634
      px      :     0.010804
      py      :     0.033829


                      *****************************
                      * MAYER POPULATION ANALYSIS *
                      *****************************

  NA   - Mulliken gross atomic population
  ZA   - Total nuclear charge
  QA   - Mulliken gross atomic charge
  VA   - Mayer's total valence
  BVA  - Mayer's bonded valence
  FA   - Mayer's free valence

  ATOM       NA         ZA         QA         VA         BVA        FA
  0 C      6.1419     6.0000    -0.1419     3.9598     3.9598    -0.0000
  1 C      6.2910     6.0000    -0.2910     3.8975     3.8975    -0.0000
  2 C      6.2852     6.0000    -0.2852     3.9829     3.9829    -0.0000
  3 H      0.8570     1.0000     0.1430     0.9679     0.9679    -0.0000
  4 C      6.0523     6.0000    -0.0523     3.9638     3.9638    -0.0000
  5 H      0.8448     1.0000     0.1552     0.9702     0.9702    -0.0000
  6 C      5.9101     6.0000     0.0899     3.7662     3.7662    -0.0000
  7 H      0.8531     1.0000     0.1469     0.9753     0.9753    -0.0000
  8 N      7.0491     7.0000    -0.0491     3.2718     3.2718    -0.0000
  9 H      0.8325     1.0000     0.1675     0.9662     0.9662    -0.0000
 10 C      5.9087     6.0000     0.0913     3.7511     3.7511    -0.0000
 11 C      6.1511     6.0000    -0.1511     3.8960     3.8960    -0.0000
 12 C      6.1421     6.0000    -0.1421     3.8951     3.8951    -0.0000
 13 H      0.8614     1.0000     0.1386     0.9679     0.9679    -0.0000
 14 H      0.8715     1.0000     0.1285     0.9675     0.9675    -0.0000
 15 N      7.0479     7.0000    -0.0479     3.2610     3.2610    -0.0000
 16 H      0.8729     1.0000     0.1271     0.9681     0.9681    -0.0000
 17 H      0.8611     1.0000     0.1389     0.9679     0.9679    -0.0000
 18 C      6.2725     6.0000    -0.2725     3.9905     3.9905    -0.0000
 19 C      6.0570     6.0000    -0.0570     3.9619     3.9619    -0.0000
 20 C      6.1495     6.0000    -0.1495     3.9642     3.9642    -0.0000
 21 H      0.8639     1.0000     0.1361     0.9794     0.9794    -0.0000
 22 C      6.2939     6.0000    -0.2939     3.8977     3.8977    -0.0000
 23 H      0.8339     1.0000     0.1661     0.9663     0.9663    -0.0000
 24 H      0.8517     1.0000     0.1483     0.9650     0.9650    -0.0000
 25 H      0.8438     1.0000     0.1562     0.9697     0.9697    -0.0000

  Mayer bond orders larger than 0.100000
B(  0-C ,  1-C ) :   1.0740 B(  0-C ,  2-C ) :   1.8168 B(  0-C ,  3-H ) :   0.9703 
B(  1-C ,  4-C ) :   1.7319 B(  1-C ,  5-H ) :   0.9765 B(  2-C ,  6-C ) :   1.0900 
B(  2-C ,  7-H ) :   0.9660 B(  4-C ,  8-N ) :   1.1922 B(  4-C ,  9-H ) :   0.9259 
B(  6-C ,  8-N ) :   1.0391 B(  6-C , 10-C ) :   1.5991 B(  8-N , 11-C ) :   0.9498 
B( 10-C , 15-N ) :   1.0363 B( 10-C , 18-C ) :   1.0824 B( 11-C , 12-C ) :   0.9790 
B( 11-C , 13-H ) :   0.9586 B( 11-C , 14-H ) :   0.9630 B( 12-C , 15-N ) :   0.9491 
B( 12-C , 16-H ) :   0.9639 B( 12-C , 17-H ) :   0.9584 B( 15-N , 19-C ) :   1.1886 
B( 18-C , 20-C ) :   1.8253 B( 18-C , 21-H ) :   0.9716 B( 19-C , 22-C ) :   1.7307 
B( 19-C , 23-H ) :   0.9267 B( 20-C , 22-C ) :   1.0720 B( 20-C , 24-H ) :   0.9668 
B( 22-C , 25-H ) :   0.9777 

-------
TIMINGS
-------

Total SCF time: 0 days 0 hours 9 min 59 sec 

Total time                  ....     599.363 sec
Sum of individual times     ....     598.427 sec  ( 99.8%)

Fock matrix formation       ....     595.536 sec  ( 99.4%)
  XC integration            ....       5.591 sec  (  0.9% of F)
    Basis function eval.    ....       1.119 sec  ( 20.0% of XC)
    Density eval.           ....       1.486 sec  ( 26.6% of XC)
    XC-Functional eval.     ....       0.360 sec  (  6.4% of XC)
    XC-Potential eval.      ....       2.386 sec  ( 42.7% of XC)
Diagonalization             ....       0.139 sec  (  0.0%)
Density matrix formation    ....       0.024 sec  (  0.0%)
Population analysis         ....       0.092 sec  (  0.0%)
Initial guess               ....       0.134 sec  (  0.0%)
Orbital Transformation      ....       0.000 sec  (  0.0%)
Orbital Orthonormalization  ....       0.113 sec  (  0.0%)
DIIS solution               ....       0.037 sec  (  0.0%)
SOSCF solution              ....       0.564 sec  (  0.1%)
Grid generation             ....       1.901 sec  (  0.3%)


-------------------------------------------------------------------------------
                          DFT DISPERSION CORRECTION                            
                                                                               
                              DFTD3 V3.1  Rev 1                                
                              USING zero damping                               
-------------------------------------------------------------------------------
The omegaB97X-D3 functional is recognized. Fit by Chai et al.
Active option DFTDOPT                   ...         3   

molecular C6(AA) [au] = 7662.776702 


            DFT-D V3
 parameters
 s6 scaling factor         :     1.0000 
 rs6 scaling factor        :     1.2810 
 s8 scaling factor         :     1.0000 
 rs8 scaling factor        :     1.0940 
 Damping factor alpha6     :    14.0000 
 Damping factor alpha8     :    16.0000 
 ad hoc parameters k1-k3   :    16.0000     1.3333    -4.0000 

 Edisp/kcal,au: -6.085635097805  -0.009698075806 
 E6   /kcal   :  -2.825699006 
 E8   /kcal   :  -3.259936092 
 % E8         :  53.567722006 

-------------------------   ----------------
Dispersion correction           -0.009698076
-------------------------   ----------------


-------------------------   --------------------
FINAL SINGLE POINT ENERGY      -573.990134414999
-------------------------   --------------------

                                *** OPTIMIZATION RUN DONE ***

                            ***************************************
                            *     ORCA property calculations      *
                            ***************************************

                                    ---------------------
                                    Active property flags
                                    ---------------------
   (+) Dipole Moment


------------------------------------------------------------------------------
                       ORCA ELECTRIC PROPERTIES CALCULATION
------------------------------------------------------------------------------

Dipole Moment Calculation                       ... on
Quadrupole Moment Calculation                   ... off
Polarizability Calculation                      ... off
GBWName                                         ... DQ.gbw
Electron density file                           ... DQ.scfp
The origin for moment calculation is the CENTER OF MASS  = ( 3.296455,  7.257732  0.886284)

-------------
DIPOLE MOMENT
-------------
                                X             Y             Z
Electronic contribution:      1.35861       0.28672      -0.10737
Nuclear contribution   :     -2.72246      -0.57205       0.21784
                        -----------------------------------------
Total Dipole Moment    :     -1.36385      -0.28533       0.11047
                        -----------------------------------------
Magnitude (a.u.)       :      1.39774
Magnitude (Debye)      :      3.55278



--------------------
Rotational spectrum 
--------------------
 
Rotational constants in cm-1:     0.052226     0.018624     0.013957 
Rotational constants in MHz :  1565.694949   558.337987   418.417276 

 Dipole components along the rotational axes: 
x,y,z [a.u.] :     0.001224    -1.397733    -0.005493 
x,y,z [Debye]:     0.003111    -3.552755    -0.013961 

 
--------------------------------------------------------------------------
[[14850,1],1]: A high-performance Open MPI point-to-point messaging module
was unable to find any relevant network interfaces:

Module: OpenFabrics (openib)
  Host: compute-1-11

Another transport will be used instead, although this may result in
lower performance.

NOTE: You can disable this warning by setting the MCA parameter
btl_base_warn_component_unused to 0.
--------------------------------------------------------------------------
[compute-1-11.local:36668] 3 more processes have sent help message help-mpi-btl-base.txt / btl:no-nics
[compute-1-11.local:36668] Set MCA parameter "orte_base_help_aggregate" to 0 to see all help / error messages

Timings for individual modules:

Sum of individual times         ...    18327.742 sec (= 305.462 min)
GTO integral calculation        ...       13.495 sec (=   0.225 min)   0.1 %
SCF iterations                  ...    10874.506 sec (= 181.242 min)  59.3 %
SCF Gradient evaluation         ...     7435.861 sec (= 123.931 min)  40.6 %
Geometry relaxation             ...        3.880 sec (=   0.065 min)   0.0 %
                             ****ORCA TERMINATED NORMALLY****
TOTAL RUN TIME: 0 days 5 hours 5 minutes 32 seconds 619 msec
