Warning: no access to tty (Bad file descriptor).
Thus no job control in this shell.

                                 *****************
                                 * O   R   C   A *
                                 *****************

           --- An Ab Initio, DFT and Semiempirical electronic structure package ---

                  #######################################################
                  #                        -***-                        #
                  #          Department of theory and spectroscopy      #
                  #               Directorship: Frank Neese             #
                  #        Max Planck Institute fuer Kohlenforschung    #
                  #                Kaiser Wilhelm Platz 1               #
                  #                 D-45470 Muelheim/Ruhr               #
                  #                      Germany                        #
                  #                                                     #
                  #                  All rights reserved                #
                  #                        -***-                        #
                  #######################################################


                         Program Version 4.2.1 -  RELEASE  -


 With contributions from (in alphabetic order):
   Daniel Aravena         : Magnetic Suceptibility
   Michael Atanasov       : Ab Initio Ligand Field Theory (pilot matlab implementation)
   Alexander A. Auer      : GIAO ZORA, VPT2
   Ute Becker             : Parallelization
   Giovanni Bistoni       : ED, misc. LED, open-shell LED, HFLD
   Martin Brehm           : Molecular dynamics
   Dmytro Bykov           : SCF Hessian
   Vijay G. Chilkuri      : MRCI spin determinant printing, contributions to CSF-ICE
   Dipayan Datta          : RHF DLPNO-CCSD density
   Achintya Kumar Dutta   : EOM-CC, STEOM-CC
   Dmitry Ganyushin       : Spin-Orbit,Spin-Spin,Magnetic field MRCI
   Miquel Garcia          : C-PCM Hessian, Gaussian charge scheme
   Yang Guo               : DLPNO-NEVPT2, CIM, IAO-localization
   Andreas Hansen         : Spin unrestricted coupled pair/coupled cluster methods
   Benjamin Helmich-Paris : CASSCF linear response (MC-RPA)
   Lee Huntington         : MR-EOM, pCC
   Robert Izsak           : Overlap fitted RIJCOSX, COSX-SCS-MP3, EOM
   Christian Kollmar      : KDIIS, OOCD, Brueckner-CCSD(T), CCSD density
   Simone Kossmann        : Meta GGA functionals, TD-DFT gradient, OOMP2, MP2 Hessian
   Martin Krupicka        : AUTO-CI
   Lucas Lang             : DCDCAS
   Dagmar Lenk            : GEPOL surface, SMD
   Dimitrios Liakos       : Extrapolation schemes; Compound Job, initial MDCI parallelization
   Dimitrios Manganas     : Further ROCIS development; embedding schemes
   Dimitrios Pantazis     : SARC Basis sets
   Taras Petrenko         : DFT Hessian,TD-DFT gradient, ASA, ECA, R-Raman, ABS, FL, XAS/XES, NRVS
   Peter Pinski           : DLPNO-MP2, DLPNO-MP2 Gradient
   Christoph Reimann      : Effective Core Potentials
   Marius Retegan         : Local ZFS, SOC
   Christoph Riplinger    : Optimizer, TS searches, QM/MM, DLPNO-CCSD(T), (RO)-DLPNO pert. Triples
   Tobias Risthaus        : Range-separated hybrids, TD-DFT gradient, RPA, STAB
   Michael Roemelt        : Original ROCIS implementation
   Masaaki Saitow         : Open-shell DLPNO-CCSD energy and density
   Barbara Sandhoefer     : DKH picture change effects
   Avijit Sen             : IP-ROCIS
   Kantharuban Sivalingam : CASSCF convergence, NEVPT2, FIC-MRCI
   Bernardo de Souza      : ESD, SOC TD-DFT
   Georgi Stoychev        : AutoAux, RI-MP2 NMR
   Willem Van den Heuvel  : Paramagnetic NMR
   Boris Wezisla          : Elementary symmetry handling
   Frank Wennmohs         : Technical directorship


 We gratefully acknowledge several colleagues who have allowed us to
 interface, adapt or use parts of their codes:
   Stefan Grimme, W. Hujo, H. Kruse,             : VdW corrections, initial TS optimization,
                  C. Bannwarth                     DFT functionals, gCP, sTDA/sTD-DF
   Ed Valeev, F. Pavosevic, A. Kumar             : LibInt (2-el integral package), F12 methods
   Garnet Chan, S. Sharma, J. Yang, R. Olivares  : DMRG
   Ulf Ekstrom                                   : XCFun DFT Library
   Mihaly Kallay                                 : mrcc  (arbitrary order and MRCC methods)
   Andreas Klamt, Michael Diedenhofen            : otool_cosmo (COSMO solvation model)
   Jiri Pittner, Ondrej Demel                    : Mk-CCSD
   Frank Weinhold                                : gennbo (NPA and NBO analysis)
   Christopher J. Cramer and Donald G. Truhlar   : smd solvation model
   Lars Goerigk                                  : TD-DFT with DH, B97 family of functionals
   V. Asgeirsson, H. Jonsson                     : NEB implementation
   FAccTs GmbH                                   : IRC, NEB, NEB-TS, Multilevel, MM, QM/MM, CI optimization
   S Lehtola, MJT Oliveira, MAL Marques          : LibXC Library


 Your calculation uses the libint2 library for the computation of 2-el integrals
 For citations please refer to: http://libint.valeyev.net

 Your ORCA version has been built with support for libXC version: 4.2.3
 For citations please refer to: https://tddft.org/programs/libxc/

 This ORCA versions uses:
   CBLAS   interface :  Fast vector & matrix operations
   LAPACKE interface :  Fast linear algebra routines
   SCALAPACK package :  Parallel linear algebra routines


Your calculation utilizes the atom-pairwise dispersion correction
with the zero-damping scheme (D30)
Cite in your paper:
S.Grimme, J.Antony, S.Ehrlich and H.Krieg, J.Chem.Phys., 132, (2010), 154104 
   

XCFun DFT library Copyright 2009-2010 Ulf Ekstrom and contributors.
See http://admol.org/xcfun for more information. This is free soft-
ware; see the source code for copying conditions. There is ABSOLUTELY
NO WARRANTY; not even for MERCHANTABILITY or FITNESS FOR A PARTICULAR
PURPOSE. For details see the documentation. Scientific users of this 
library should cite U. Ekstrom, L. Visscher, R. Bast, A. J. Thorvald-
sen and K. Ruud; J.Chem.Theor.Comp. 2010, DOI: 10.1021/ct100117s
XCFun Version 0.99 
----- Orbital basis set information -----
Your calculation utilizes the basis: def2-TZVP
   F. Weigend and R. Ahlrichs, Phys. Chem. Chem. Phys. 7, 3297 (2005).

----- AuxJ basis set information -----
Your calculation utilizes the auxiliary basis: def2/J
   F. Weigend, Phys. Chem. Chem. Phys. 8, 1057 (2006).

================================================================================
                                        WARNINGS
                       Please study these warnings very carefully!
================================================================================


WARNING: Geometry Optimization
  ===> : Switching off AutoStart
         For restart on a previous wavefunction, please use MOREAD

INFO   : the flag for use of LIBINT has been found!

================================================================================
                                       INPUT FILE
================================================================================
NAME = AQ.inp
|  1> # avogadro generated ORCA input file 
|  2> # Basic Mode
|  3> # 
|  4> ! wB97X-D3 OPT def2-TZVP def2/J CPCM
|  5> %cpcm
|  6>   epsilon 3
|  7> end
|  8> %pal
|  9>  nprocs 8
| 10> end 
| 11> 
| 12> * xyz 0 1
| 13>    O        1.51120       -0.25959        0.33565
| 14>    C        2.73033       -0.24056        0.23744
| 15>    C        3.44568        1.05737        0.13897
| 16>    C        2.73404        2.27157        0.15735
| 17>    C        3.41049        3.48959        0.06461
| 18>    C        4.80055        3.51124       -0.04723
| 19>    C        5.52048        2.31495       -0.06684
| 20>    C        4.85297        1.07926        0.02574
| 21>    C        5.61474       -0.19570        0.00530
| 22>    O        6.83388       -0.17649       -0.09280
| 23>    C        4.89914       -1.49386        0.10371
| 24>    C        5.61111       -2.70766        0.08550
| 25>    C        4.93596       -3.92926        0.17774
| 26>    S        5.85608       -5.46882        0.15595
| 27>    O        5.05696       -6.60233       -0.50464
| 28>    O        7.07860       -5.38930       -0.77079
| 29>    O        6.44071       -6.11972        1.63236
| 30>    C        3.54358       -3.94705        0.29127
| 31>    C        2.82513       -2.75033        0.31048
| 32>    C        3.49238       -1.51545        0.21703
| 33>    H        1.74671       -2.79201        0.39891
| 34>    H        6.69069       -2.70768        0.00003
| 35>    H        6.59894        2.35729       -0.15442
| 36>    H        5.32184        4.45714       -0.11891
| 37>    H        1.65467        2.28028        0.24340
| 38>    H        2.85544        4.41874        0.07952
| 39>    H        3.01373       -4.88819        0.36520
| 40>   Na        7.55987       -8.51763       -0.11909
| 41> *
| 42> 
| 43> 
| 44>                          ****END OF INPUT****
================================================================================

                       *****************************
                       * Geometry Optimization Run *
                       *****************************

Geometry optimization settings:
Update method            Update   .... BFGS
Choice of coordinates    CoordSys .... Z-matrix Internals
Initial Hessian          InHess   .... Almoef's Model

Convergence Tolerances:
Energy Change            TolE     ....  5.0000e-06 Eh
Max. Gradient            TolMAXG  ....  3.0000e-04 Eh/bohr
RMS Gradient             TolRMSG  ....  1.0000e-04 Eh/bohr
Max. Displacement        TolMAXD  ....  4.0000e-03 bohr
RMS Displacement         TolRMSD  ....  2.0000e-03 bohr
Strict Convergence                ....  False
------------------------------------------------------------------------------
                        ORCA OPTIMIZATION COORDINATE SETUP
------------------------------------------------------------------------------

The optimization will be done in new redundant internal coordinates
Making redundant internal coordinates   ...  (new redundants) done
Evaluating the initial hessian          ...  (Almloef) done
Evaluating the coordinates              ...  done
Calculating the B-matrix                .... done
Calculating the G-matrix                .... done
Diagonalizing the G-matrix              .... done
Small eigenvalue found = 1.091e-02
Small eigenvalue found = 2.933e-02
The first mode is                       ....  112
The number of degrees of freedom        ....   78

    -----------------------------------------------------------------
                    Redundant Internal Coordinates


    -----------------------------------------------------------------
         Definition                    Initial Value    Approx d2E/dq
    -----------------------------------------------------------------
      1. B(C   1,O   0)                  1.2232         1.032644   
      2. B(C   2,C   1)                  1.4853         0.440283   
      3. B(C   3,C   2)                  1.4075         0.585897   
      4. B(C   4,C   3)                  1.3963         0.610419   
      5. B(C   5,C   4)                  1.3947         0.614056   
      6. B(C   6,C   5)                  1.3964         0.610390   
      7. B(C   7,C   2)                  1.4120         0.576271   
      8. B(C   7,C   6)                  1.4075         0.585882   
      9. B(C   8,C   7)                  1.4853         0.440180   
     10. B(O   9,C   8)                  1.2232         1.032629   
     11. B(C  10,C   8)                  1.4856         0.439770   
     12. B(C  11,C  10)                  1.4073         0.586285   
     13. B(C  12,C  11)                  1.3988         0.604920   
     14. B(S  13,C  12)                  1.7937         0.382329   
     15. B(O  14,S  13)                  1.5362         0.881940   
     16. B(O  15,S  13)                  1.5361         0.882036   
     17. B(O  16,S  13)                  1.7162         0.455255   
     18. B(C  17,C  12)                  1.3971         0.608679   
     19. B(C  18,C  17)                  1.3960         0.611286   
     20. B(C  19,C  18)                  1.4067         0.587557   
     21. B(C  19,C  10)                  1.4115         0.577385   
     22. B(C  19,C   1)                  1.4854         0.440045   
     23. B(H  20,C  18)                  1.0828         0.369695   
     24. B(H  21,C  11)                  1.0830         0.369537   
     25. B(H  22,C   6)                  1.0828         0.369700   
     26. B(H  23,C   5)                  1.0824         0.370284   
     27. B(H  24,C   3)                  1.0828         0.369711   
     28. B(H  25,C   4)                  1.0824         0.370275   
     29. B(H  26,C  17)                  1.0826         0.370068   
     30. B(Na 27,O  14)                  3.1752         0.011600   
     31. B(Na 27,S  13)                  3.5034         0.010456   
     32. B(Na 27,O  16)                  3.1733         0.011677   
     33. B(Na 27,O  15)                  3.2315         0.009430   
     34. A(O   0,C   1,C  19)          119.9373         0.444435   
     35. A(C   2,C   1,C  19)          120.1334         0.384498   
     36. A(O   0,C   1,C   2)          119.9294         0.444479   
     37. A(C   3,C   2,C   7)          119.4452         0.424082   
     38. A(C   1,C   2,C   3)          120.6287         0.404278   
     39. A(C   1,C   2,C   7)          119.9261         0.403098   
     40. A(C   4,C   3,H  24)          118.7612         0.353553   
     41. A(C   2,C   3,C   4)          120.4438         0.428477   
     42. A(C   2,C   3,H  24)          120.7950         0.351109   
     43. A(C   5,C   4,H  25)          119.9243         0.354000   
     44. A(C   3,C   4,H  25)          119.9636         0.353644   
     45. A(C   3,C   4,C   5)          120.1121         0.432103   
     46. A(C   4,C   5,C   6)          120.1115         0.432099   
     47. A(C   4,C   5,H  23)          119.9252         0.354002   
     48. A(C   6,C   5,H  23)          119.9633         0.353643   
     49. A(C   7,C   6,H  22)          120.7959         0.351106   
     50. A(C   5,C   6,H  22)          118.7594         0.353548   
     51. A(C   5,C   6,C   7)          120.4448         0.428471   
     52. A(C   6,C   7,C   8)          120.6274         0.404259   
     53. A(C   2,C   7,C   8)          119.9300         0.403081   
     54. A(C   2,C   7,C   6)          119.4426         0.424080   
     55. A(O   9,C   8,C  10)          119.9416         0.444384   
     56. A(C   7,C   8,C  10)          120.1399         0.384440   
     57. A(C   7,C   8,O   9)          119.9185         0.444459   
     58. A(C   8,C  10,C  19)          119.9184         0.403153   
     59. A(C   8,C  10,C  11)          120.6056         0.404242   
     60. A(C  11,C  10,C  19)          119.4760         0.424279   
     61. A(C  12,C  11,H  21)          119.1007         0.352983   
     62. A(C  10,C  11,H  21)          120.3556         0.351120   
     63. A(C  10,C  11,C  12)          120.5437         0.427833   
     64. A(C  11,C  12,C  17)          119.8352         0.430720   
     65. A(S  13,C  12,C  17)          120.0857         0.418637   
     66. A(C  11,C  12,S  13)          120.0788         0.418176   
     67. A(O  15,S  13,Na 27)           67.0860         0.283511   
     68. A(O  14,S  13,Na 27)           64.9817         0.283506   
     69. A(O  15,S  13,O  16)          105.5174         0.482576   
     70. A(O  14,S  13,O  16)          105.5036         0.482566   
     71. A(C  12,S  13,O  16)          119.3298         0.417024   
     72. A(O  14,S  13,O  15)          101.1142         0.546119   
     73. A(C  12,S  13,O  15)          111.7861         0.469993   
     74. A(C  12,S  13,O  14)          111.8211         0.469983   
     75. A(O  16,S  13,Na 27)           64.6470         0.256469   
     76. A(S  13,O  14,Na 27)           89.0155         0.277889   
     77. A(S  13,O  15,Na 27)           86.9473         0.269244   
     78. A(S  13,O  16,Na 27)           86.0963         0.251878   
     79. A(C  12,C  17,C  18)          120.2070         0.431531   
     80. A(C  18,C  17,H  26)          119.5015         0.353696   
     81. A(C  12,C  17,H  26)          120.2915         0.353440   
     82. A(C  19,C  18,H  20)          120.7708         0.351274   
     83. A(C  17,C  18,H  20)          118.7306         0.353635   
     84. A(C  17,C  18,C  19)          120.4986         0.428803   
     85. A(C   1,C  19,C  10)          119.9522         0.403197   
     86. A(C  10,C  19,C  18)          119.4393         0.424443   
     87. A(C   1,C  19,C  18)          120.6084         0.404441   
     88. A(O  15,Na 27,O  16)           47.7220         0.163592   
     89. A(O  14,Na 27,O  16)           48.1791         0.167172   
     90. A(S  13,Na 27,O  16)           29.2567         0.169497   
     91. A(O  14,Na 27,O  15)           43.4614         0.163480   
     92. A(S  13,Na 27,O  15)           25.9667         0.165695   
     93. A(S  13,Na 27,O  14)           26.0028         0.169375   
     94. D(C   7,C   2,C   1,O   0)    179.9937         0.013227   
     95. D(C   3,C   2,C   1,C  19)   -179.9966         0.013227   
     96. D(C   7,C   2,C   1,C  19)     -0.0003         0.013227   
     97. D(C   3,C   2,C   1,O   0)     -0.0026         0.013227   
     98. D(H  24,C   3,C   2,C   7)   -179.9992         0.023607   
     99. D(H  24,C   3,C   2,C   1)     -0.0029         0.023607   
    100. D(C   4,C   3,C   2,C   7)     -0.0001         0.023607   
    101. D(C   4,C   3,C   2,C   1)    179.9963         0.023607   
    102. D(H  25,C   4,C   3,H  24)     -0.0004         0.025736   
    103. D(H  25,C   4,C   3,C   2)   -179.9996         0.025736   
    104. D(C   5,C   4,C   3,H  24)    179.9990         0.025736   
    105. D(C   5,C   4,C   3,C   2)     -0.0002         0.025736   
    106. D(C   6,C   5,C   4,H  25)    179.9995         0.026062   
    107. D(H  23,C   5,C   4,C   3)   -179.9989         0.026062   
    108. D(C   6,C   5,C   4,C   3)      0.0001         0.026062   
    109. D(H  23,C   5,C   4,H  25)      0.0005         0.026062   
    110. D(H  22,C   6,C   5,H  23)     -0.0010         0.025734   
    111. D(C   7,C   6,C   5,H  23)    179.9992         0.025734   
    112. D(H  22,C   6,C   5,C   4)   -180.0000         0.025734   
    113. D(C   7,C   6,C   5,C   4)      0.0002         0.025734   
    114. D(C   8,C   7,C   6,H  22)      0.0010         0.023606   
    115. D(C   2,C   7,C   6,H  22)    179.9998         0.023606   
    116. D(C   2,C   7,C   6,C   5)     -0.0004         0.023606   
    117. D(C   8,C   7,C   2,C   3)    179.9991         0.022802   
    118. D(C   8,C   7,C   2,C   1)      0.0027         0.022802   
    119. D(C   8,C   7,C   6,C   5)   -179.9991         0.023606   
    120. D(C   6,C   7,C   2,C   1)   -179.9960         0.022802   
    121. D(C   6,C   7,C   2,C   3)      0.0003         0.022802   
    122. D(C  10,C   8,C   7,C   2)      0.0011         0.013221   
    123. D(O   9,C   8,C   7,C   6)     -0.0013         0.013221   
    124. D(O   9,C   8,C   7,C   2)    180.0000         0.013221   
    125. D(C  10,C   8,C   7,C   6)    179.9999         0.013221   
    126. D(C  19,C  10,C   8,O   9)    179.9934         0.013197   
    127. D(C  19,C  10,C   8,C   7)     -0.0078         0.013197   
    128. D(C  11,C  10,C   8,O   9)      0.0101         0.013197   
    129. D(C  11,C  10,C   8,C   7)   -179.9911         0.013197   
    130. D(H  21,C  11,C  10,C  19)   -179.9411         0.023640   
    131. D(C  12,C  11,C  10,C   8)   -179.9760         0.023640   
    132. D(C  12,C  11,C  10,C  19)      0.0406         0.023640   
    133. D(H  21,C  11,C  10,C   8)      0.0423         0.023640   
    134. D(C  17,C  12,C  11,H  21)    179.8714         0.025249   
    135. D(C  17,C  12,C  11,C  10)     -0.1105         0.025249   
    136. D(S  13,C  12,C  11,H  21)      0.0799         0.025249   
    137. D(S  13,C  12,C  11,C  10)   -179.9020         0.025249   
    138. D(O  16,S  13,C  12,C  17)    -91.4596         0.004268   
    139. D(O  16,S  13,C  12,C  11)     88.3314         0.004268   
    140. D(O  15,S  13,C  12,C  17)    144.8270         0.004268   
    141. D(O  14,S  13,C  12,C  11)   -147.9420         0.004268   
    142. D(O  15,S  13,C  12,C  11)    -35.3820         0.004268   
    143. D(O  14,S  13,C  12,C  17)     32.2670         0.004268   
    144. D(Na 27,O  14,S  13,O  16)    -51.6962         0.018859   
    145. D(Na 27,O  14,S  13,O  15)     58.0243         0.018859   
    146. D(Na 27,O  14,S  13,C  12)    177.1080         0.018859   
    147. D(Na 27,O  15,S  13,O  16)     53.1424         0.018863   
    148. D(Na 27,O  15,S  13,O  14)    -56.5674         0.018863   
    149. D(Na 27,O  15,S  13,C  12)   -175.6763         0.018863   
    150. D(Na 27,O  16,S  13,O  15)    -54.6406         0.005727   
    151. D(Na 27,O  16,S  13,O  14)     51.8962         0.005727   
    152. D(Na 27,O  16,S  13,C  12)    178.6457         0.005727   
    153. D(H  26,C  17,C  12,S  13)     -0.0815         0.025581   
    154. D(H  26,C  17,C  12,C  11)   -179.8730         0.025581   
    155. D(C  18,C  17,C  12,S  13)    179.9049         0.025581   
    156. D(C  18,C  17,C  12,C  11)      0.1134         0.025581   
    157. D(H  20,C  18,C  17,H  26)     -0.0382         0.025814   
    158. D(H  20,C  18,C  17,C  12)    179.9753         0.025814   
    159. D(C  19,C  18,C  17,H  26)    179.9397         0.025814   
    160. D(C  19,C  18,C  17,C  12)     -0.0468         0.025814   
    161. D(C  10,C  19,C  18,C  17)     -0.0232         0.023747   
    162. D(C   1,C  19,C  18,H  20)     -0.0130         0.023747   
    163. D(C   1,C  19,C  18,C  17)   -179.9905         0.023747   
    164. D(C  18,C  19,C  10,C  11)      0.0262         0.022894   
    165. D(C  18,C  19,C  10,C   8)   -179.9573         0.022894   
    166. D(C   1,C  19,C  10,C  11)    179.9937         0.022894   
    167. D(C   1,C  19,C  10,C   8)      0.0102         0.022894   
    168. D(C  18,C  19,C   1,C   2)    179.9608         0.013213   
    169. D(C  18,C  19,C   1,O   0)     -0.0332         0.013213   
    170. D(C  10,C  19,C   1,C   2)     -0.0063         0.013213   
    171. D(C  10,C  19,C  18,H  20)    179.9543         0.023747   
    172. D(C  10,C  19,C   1,O   0)    179.9997         0.013213   
    173. D(O  15,Na 27,O  16,S  13)     30.3223         0.001501   
    174. D(O  14,Na 27,O  16,S  13)    -29.4898         0.001501   
    175. D(O  14,Na 27,O  15,S  13)     35.1670         0.001500   
    176. D(O  16,Na 27,O  14,S  13)     33.2817         0.001501   
    177. D(O  15,Na 27,O  14,S  13)    -35.1149         0.001501   
    178. D(O  16,Na 27,S  13,O  14)   -123.1990         0.001500   
    179. D(O  15,Na 27,S  13,O  16)   -121.4461         0.001500   
    180. D(O  15,Na 27,S  13,O  14)    115.3549         0.001500   
    181. D(O  14,Na 27,S  13,O  16)    123.1990         0.001500   
    182. D(O  14,Na 27,S  13,O  15)   -115.3549         0.001500   
    183. D(O  16,Na 27,S  13,O  15)    121.4461         0.001500   
    184. D(O  16,Na 27,C  12,C  17)    -94.2382         0.001500   
    185. D(O  16,Na 27,C  12,C  11)     88.5678         0.001500   
    186. D(O  15,Na 27,C  12,C  17)    147.8260         0.001500   
    187. D(O  16,Na 27,O  15,S  13)    -34.2998         0.001500   
    188. D(O  15,Na 27,C  12,C  11)    -29.3681         0.001500   
    189. D(O  14,Na 27,C  12,C  17)     27.6949         0.001500   
    190. D(O  14,Na 27,C  12,C  11)   -149.4992         0.001500   
    -----------------------------------------------------------------

Number of atoms                         .... 28
Number of degrees of freedom            .... 190

         *************************************************************
         *                GEOMETRY OPTIMIZATION CYCLE   1            *
         *************************************************************
---------------------------------
CARTESIAN COORDINATES (ANGSTROEM)
---------------------------------
  O      1.511200   -0.259590    0.335650
  C      2.730330   -0.240560    0.237440
  C      3.445680    1.057370    0.138970
  C      2.734040    2.271570    0.157350
  C      3.410490    3.489590    0.064610
  C      4.800550    3.511240   -0.047230
  C      5.520480    2.314950   -0.066840
  C      4.852970    1.079260    0.025740
  C      5.614740   -0.195700    0.005300
  O      6.833880   -0.176490   -0.092800
  C      4.899140   -1.493860    0.103710
  C      5.611110   -2.707660    0.085500
  C      4.935960   -3.929260    0.177740
  S      5.856080   -5.468820    0.155950
  O      5.056960   -6.602330   -0.504640
  O      7.078600   -5.389300   -0.770790
  O      6.440710   -6.119720    1.632360
  C      3.543580   -3.947050    0.291270
  C      2.825130   -2.750330    0.310480
  C      3.492380   -1.515450    0.217030
  H      1.746710   -2.792010    0.398910
  H      6.690690   -2.707680    0.000030
  H      6.598940    2.357290   -0.154420
  H      5.321840    4.457140   -0.118910
  H      1.654670    2.280280    0.243400
  H      2.855440    4.418740    0.079520
  H      3.013730   -4.888190    0.365200
  Na     7.559870   -8.517630   -0.119090

----------------------------
CARTESIAN COORDINATES (A.U.)
----------------------------
  NO LB      ZA    FRAG     MASS         X           Y           Z
   0 O     8.0000    0    15.999    2.855754   -0.490554    0.634287
   1 C     6.0000    0    12.011    5.159576   -0.454593    0.448697
   2 C     6.0000    0    12.011    6.511392    1.998140    0.262615
   3 C     6.0000    0    12.011    5.166587    4.292645    0.297348
   4 C     6.0000    0    12.011    6.444892    6.594369    0.122095
   5 C     6.0000    0    12.011    9.071725    6.635282   -0.089252
   6 C     6.0000    0    12.011   10.432195    4.374622   -0.126309
   7 C     6.0000    0    12.011    9.170784    2.039506    0.048642
   8 C     6.0000    0    12.011   10.610321   -0.369819    0.010016
   9 O     8.0000    0    15.999   12.914162   -0.333518   -0.175367
  10 C     6.0000    0    12.011    9.258033   -2.822986    0.195983
  11 C     6.0000    0    12.011   10.603461   -5.116736    0.161572
  12 C     6.0000    0    12.011    9.327613   -7.425225    0.335880
  13 S    16.0000    0    32.060   11.066387  -10.334572    0.294703
  14 O     8.0000    0    15.999    9.556269  -12.476596   -0.953631
  15 O     8.0000    0    15.999   13.376615  -10.184301   -1.456582
  16 O     8.0000    0    15.999   12.171178  -11.564595    3.084713
  17 C     6.0000    0    12.011    6.696396   -7.458844    0.550421
  18 C     6.0000    0    12.011    5.338722   -5.197370    0.586722
  19 C     6.0000    0    12.011    6.599642   -2.863785    0.410127
  20 H     1.0000    0     1.008    3.300804   -5.276134    0.753831
  21 H     1.0000    0     1.008   12.643572   -5.116774    0.000057
  22 H     1.0000    0     1.008   12.470189    4.454633   -0.291812
  23 H     1.0000    0     1.008   10.056820    8.422774   -0.224707
  24 H     1.0000    0     1.008    3.126873    4.309105    0.459959
  25 H     1.0000    0     1.008    5.396000    8.350208    0.150271
  26 H     1.0000    0     1.008    5.695124   -9.237340    0.690128
  27 Na   11.0000    0    22.990   14.286084  -16.095988   -0.225047

--------------------------------
INTERNAL COORDINATES (ANGSTROEM)
--------------------------------
 O      0   0   0     0.000000000000     0.00000000     0.00000000
 C      1   0   0     1.223227412176     0.00000000     0.00000000
 C      2   1   0     1.485275815564   119.92937847     0.00000000
 C      3   2   1     1.407498118649   120.62873520     0.00000000
 C      4   3   2     1.396337362710   120.44384619   179.99625596
 C      5   4   3     1.394719940239   120.11211770     0.00000000
 C      6   5   4     1.396350071114   120.11151388     0.00000000
 C      7   6   5     1.407505038215   120.44476657     0.00000000
 C      8   7   6     1.485339802234   120.62738864   180.00087104
 O      9   8   7     1.223231365564   119.91848061     0.00000000
 C      9   8   7     1.485593239652   120.13989394   179.99987249
 C     11   9   8     1.407317776836   120.60557318   180.00893308
 C     12  11   9     1.398800307442   120.54371659   180.02398216
 S     13  12  11     1.793694681962   120.07880056   180.09796182
 O     14  13  12     1.536169535761   111.82106626   212.05803345
 O     14  13  12     1.536139840119   111.78608611   324.61795245
 O     14  13  12     1.716172932720   119.32982418    88.33135377
 C     13  12  11     1.397114028775   119.83519736   359.88947299
 C     18  13  12     1.395950638454   120.20699413     0.11338610
 C     19  18  13     1.406728146942   120.49864117   359.95323183
 H     19  18  13     1.082841993875   118.73057149   179.97525368
 H     12  11   9     1.082958031366   120.35556737     0.04228118
 H      7   6   5     1.082838355250   118.75937580   180.00000475
 H      6   5   4     1.082408470264   119.92515306   180.00111323
 H      4   3   2     1.082829655809   120.79498879     0.00000000
 H      5   4   3     1.082415138983   119.96361397   180.00043499
 H     18  13  12     1.082566934189   120.29149188   180.12698074
 Na    17  14  13     3.173337135603    86.09627533   178.64565899

---------------------------
INTERNAL COORDINATES (A.U.)
---------------------------
 O      0   0   0     0.000000000000     0.00000000     0.00000000
 C      1   0   0     2.311564808519     0.00000000     0.00000000
 C      2   1   0     2.806764524753   119.92937847     0.00000000
 C      3   2   1     2.659785978256   120.62873520     0.00000000
 C      4   3   2     2.638695206084   120.44384619   179.99625596
 C      5   4   3     2.635638720571   120.11211770     0.00000000
 C      6   5   4     2.638719221487   120.11151388     0.00000000
 C      7   6   5     2.659799054340   120.44476657     0.00000000
 C      8   7   6     2.806885442035   120.62738864   180.00087104
 O      9   8   7     2.311572279339   119.91848061     0.00000000
 C      9   8   7     2.807364369347   120.13989394   179.99987249
 C     11   9   8     2.659445181620   120.60557318   180.00893308
 C     12  11   9     2.643349497110   120.54371659   180.02398216
 S     13  12  11     3.389591716780   120.07880056   180.09796182
 O     14  13  12     2.902939717861   111.82106626   212.05803345
 O     14  13  12     2.902883601230   111.78608611   324.61795245
 O     14  13  12     3.243096841289   119.32982418    88.33135377
 C     13  12  11     2.640162892244   119.83519736   359.88947299
 C     18  13  12     2.637964403150   120.20699413     0.11338610
 C     19  18  13     2.658330942600   120.49864117   359.95323183
 H     19  18  13     2.046274814734   118.73057149   179.97525368
 H     12  11   9     2.046494093812   120.35556737     0.04228118
 H      7   6   5     2.046267938728   118.75937580   180.00000475
 H      6   5   4     2.045455573836   119.92515306   180.00111323
 H      4   3   2     2.046251499168   120.79498879     0.00000000
 H      5   4   3     2.045468175889   119.96361397   180.00043499
 H     18  13  12     2.045755027257   120.29149188   180.12698074
 Na    17  14  13     5.996738116893    86.09627533   178.64565899

---------------------
BASIS SET INFORMATION
---------------------
There are 5 groups of distinct atoms

 Group   1 Type O   : 11s6p2d1f contracted to 5s3p2d1f pattern {62111/411/11/1}
 Group   2 Type C   : 11s6p2d1f contracted to 5s3p2d1f pattern {62111/411/11/1}
 Group   3 Type S   : 14s9p3d1f contracted to 5s5p2d1f pattern {73211/51111/21/1}
 Group   4 Type H   : 5s1p contracted to 3s1p pattern {311/1}
 Group   5 Type Na  : 14s8p3d contracted to 5s4p3d pattern {73211/5111/111}

Atom   0O    basis set group =>   1
Atom   1C    basis set group =>   2
Atom   2C    basis set group =>   2
Atom   3C    basis set group =>   2
Atom   4C    basis set group =>   2
Atom   5C    basis set group =>   2
Atom   6C    basis set group =>   2
Atom   7C    basis set group =>   2
Atom   8C    basis set group =>   2
Atom   9O    basis set group =>   1
Atom  10C    basis set group =>   2
Atom  11C    basis set group =>   2
Atom  12C    basis set group =>   2
Atom  13S    basis set group =>   3
Atom  14O    basis set group =>   1
Atom  15O    basis set group =>   1
Atom  16O    basis set group =>   1
Atom  17C    basis set group =>   2
Atom  18C    basis set group =>   2
Atom  19C    basis set group =>   2
Atom  20H    basis set group =>   4
Atom  21H    basis set group =>   4
Atom  22H    basis set group =>   4
Atom  23H    basis set group =>   4
Atom  24H    basis set group =>   4
Atom  25H    basis set group =>   4
Atom  26H    basis set group =>   4
Atom  27Na   basis set group =>   5
---------------------------------
AUXILIARY/J BASIS SET INFORMATION
---------------------------------
There are 5 groups of distinct atoms

 Group   1 Type O   : 12s5p4d2f1g contracted to 6s4p3d1f1g pattern {711111/2111/211/2/1}
 Group   2 Type C   : 12s5p4d2f1g contracted to 6s4p3d1f1g pattern {711111/2111/211/2/1}
 Group   3 Type S   : 14s5p5d2f1g contracted to 8s4p3d1f1g pattern {71111111/2111/311/2/1}
 Group   4 Type H   : 5s2p1d contracted to 3s1p1d pattern {311/2/1}
 Group   5 Type Na  : 14s5p5d2f1g contracted to 8s4p4d1f1g pattern {71111111/2111/2111/2/1}

Atom   0O    basis set group =>   1
Atom   1C    basis set group =>   2
Atom   2C    basis set group =>   2
Atom   3C    basis set group =>   2
Atom   4C    basis set group =>   2
Atom   5C    basis set group =>   2
Atom   6C    basis set group =>   2
Atom   7C    basis set group =>   2
Atom   8C    basis set group =>   2
Atom   9O    basis set group =>   1
Atom  10C    basis set group =>   2
Atom  11C    basis set group =>   2
Atom  12C    basis set group =>   2
Atom  13S    basis set group =>   3
Atom  14O    basis set group =>   1
Atom  15O    basis set group =>   1
Atom  16O    basis set group =>   1
Atom  17C    basis set group =>   2
Atom  18C    basis set group =>   2
Atom  19C    basis set group =>   2
Atom  20H    basis set group =>   4
Atom  21H    basis set group =>   4
Atom  22H    basis set group =>   4
Atom  23H    basis set group =>   4
Atom  24H    basis set group =>   4
Atom  25H    basis set group =>   4
Atom  26H    basis set group =>   4
Atom  27Na   basis set group =>   5
--------------------------------------------------------------------------
[[58632,1],1]: A high-performance Open MPI point-to-point messaging module
was unable to find any relevant network interfaces:

Module: OpenFabrics (openib)
  Host: compute-0-13

Another transport will be used instead, although this may result in
lower performance.

NOTE: You can disable this warning by setting the MCA parameter
btl_base_warn_component_unused to 0.
--------------------------------------------------------------------------


           ************************************************************
           *        Program running with 8 parallel MPI-processes     *
           *              working on a common directory               *
           ************************************************************
------------------------------------------------------------------------------
                           ORCA GTO INTEGRAL CALCULATION
------------------------------------------------------------------------------

                         BASIS SET STATISTICS AND STARTUP INFO

 # of primitive gaussian shells          ...  474
 # of primitive gaussian functions       ... 1046
 # of contracted shells                  ...  262
 # of contracted basis functions         ...  700
 Highest angular momentum                ...    3
 Maximum contraction depth               ...    7
 Integral package used                   ... LIBINT
 Integral threshhold            Thresh   ...  2.500e-11
 Primitive cut-off              TCut     ...  2.500e-12


------------------------------ INTEGRAL EVALUATION ----------------------------


 * One electron integrals 
 Pre-screening matrix                    ... done
 Shell pair data                         ... done (   0.011 sec)

[compute-0-13.local:06177] 7 more processes have sent help message help-mpi-btl-base.txt / btl:no-nics
[compute-0-13.local:06177] Set MCA parameter "orte_base_help_aggregate" to 0 to see all help / error messages
--------------------------------------------------------------------------
[[58646,1],0]: A high-performance Open MPI point-to-point messaging module
was unable to find any relevant network interfaces:

Module: OpenFabrics (openib)
  Host: compute-0-13

Another transport will be used instead, although this may result in
lower performance.

NOTE: You can disable this warning by setting the MCA parameter
btl_base_warn_component_unused to 0.
--------------------------------------------------------------------------


           ************************************************************
           *        Program running with 8 parallel MPI-processes     *
           *              working on a common directory               *
           ************************************************************
-------------------------------------------------------------------------------
                                 ORCA SCF
-------------------------------------------------------------------------------

------------
SCF SETTINGS
------------
Hamiltonian:
 Density Functional     Method          .... DFT(GTOs)
 Exchange Functional    Exchange        .... WB97X-D3
 Correlation Functional Correlation     .... WB97X-D3
 Gradients option       PostSCFGGA      .... off
 Hybrid DFT is turned on
   Fraction HF Exchange ScalHFX         ....  0.195728
   Scaling of DF-GGA-X  ScalDFX         ....  0.000000
   Scaling of DF-GGA-C  ScalDFC         ....  1.000000
   Scaling of DF-LDA-C  ScalLDAC        ....  1.000000
   Perturbative correction              ....  0.000000
   Density functional embedding theory  .... OFF
 Long-range corrected/Screened/Range-Separated Hybrid DFT is turned on
   Amount of maximum screened exact exchange              ....  0.804272
   Range separation parameter mu (erf(mu*r12)/r12)        ....  0.250000


General Settings:
 Integral files         IntName         .... AQ
 Hartree-Fock type      HFTyp           .... RHF
 Total Charge           Charge          ....    0
 Multiplicity           Mult            ....    1
 Number of Electrons    NEL             ....  158
 Basis Dimension        Dim             ....  700
 Nuclear Repulsion      ENuc            ....   1697.9297484280 Eh

Convergence Acceleration:
 DIIS                   CNVDIIS         .... on
   Start iteration      DIISMaxIt       ....    12
   Startup error        DIISStart       ....  0.200000
   # of expansion vecs  DIISMaxEq       ....     5
   Bias factor          DIISBfac        ....   1.050
   Max. coefficient     DIISMaxC        ....  10.000
 Newton-Raphson         CNVNR           .... off
 SOSCF                  CNVSOSCF        .... on
   Start iteration      SOSCFMaxIt      ....   150
   Startup grad/error   SOSCFStart      ....  0.003300
 Level Shifting         CNVShift        .... on
   Level shift para.    LevelShift      ....    0.2500
   Turn off err/grad.   ShiftErr        ....    0.0010
 Zerner damping         CNVZerner       .... off
 Static damping         CNVDamp         .... on
   Fraction old density DampFac         ....    0.7000
   Max. Damping (<1)    DampMax         ....    0.9800
   Min. Damping (>=0)   DampMin         ....    0.0000
   Turn off err/grad.   DampErr         ....    0.1000
 Fernandez-Rico         CNVRico         .... off

SCF Procedure:
 Maximum # iterations   MaxIter         ....   125
 SCF integral mode      SCFMode         .... Direct
   Integral package                     .... LIBINT
 Reset frequency        DirectResetFreq ....    20
 Integral Threshold     Thresh          ....  2.500e-11 Eh
 Primitive CutOff       TCut            ....  2.500e-12 Eh

Convergence Tolerance:
 Convergence Check Mode ConvCheckMode   .... Total+1el-Energy
 Convergence forced     ConvForced      .... 0
 Energy Change          TolE            ....  1.000e-08 Eh
 1-El. energy change                    ....  1.000e-05 Eh
 Orbital Gradient       TolG            ....  1.000e-05
 Orbital Rotation angle TolX            ....  1.000e-05
 DIIS Error             TolErr          ....  5.000e-07


Diagonalization of the overlap matrix:
Smallest eigenvalue                        ... 5.591e-06
Time for diagonalization                   ...    0.201 sec
Threshold for overlap eigenvalues          ... 1.000e-08
Number of eigenvalues below threshold      ... 0
Time for construction of square roots      ...    0.096 sec
Total time needed                          ...    0.300 sec

-------------------
DFT GRID GENERATION
-------------------

General Integration Accuracy     IntAcc      ...  4.340
Radial Grid Type                 RadialGrid  ... Gauss-Chebyshev
Angular Grid (max. acc.)         AngularGrid ... Lebedev-110
Angular grid pruning method      GridPruning ... 3 (G Style)
Weight generation scheme         WeightScheme... Becke
Basis function cutoff            BFCut       ...    1.0000e-11
Integration weight cutoff        WCut        ...    1.0000e-14
Grids for H and He will be reduced by one unit

# of grid points (after initial pruning)     ...  40992 (   0.0 sec)
# of grid points (after weights+screening)   ...  37282 (   0.1 sec)
nearest neighbour list constructed           ...    0.0 sec
Grid point re-assignment to atoms done       ...    0.0 sec
Grid point division into batches done        ...    0.1 sec
Reduced shell lists constructed in    0.2 sec

Total number of grid points                  ...    37282
Total number of batches                      ...      596
Average number of points per batch           ...       62
Average number of grid points per atom       ...     1332
Average number of shells per batch           ...   135.11 (51.57%)
Average number of basis functions per batch  ...   366.21 (52.32%)
Average number of large shells per batch     ...    99.32 (73.51%)
Average number of large basis fcns per batch ...   265.82 (72.59%)
Maximum spatial batch extension              ...  13.37,  6.34, 23.12 au
Average spatial batch extension              ...   0.34,  0.29,  0.53 au

Time for grid setup =    0.299 sec

------------------------------
INITIAL GUESS: MODEL POTENTIAL
------------------------------
Loading Hartree-Fock densities                     ... done
Calculating cut-offs                               ... done
Setting up the integral package                    ... done
Initializing the effective Hamiltonian             ... done
Starting the Coulomb interaction                   ... done (   0.3 sec)
Reading the grid                                   ... done
Mapping shells                                     ... done
Starting the XC term evaluation                    ... done (   0.4 sec)
  promolecular density results
     # of electrons  =    158.012593768
     EX              =   -153.215688470
     EC              =     -5.446136112
     EX+EC           =   -158.661824582
Transforming the Hamiltonian                       ... done (   0.1 sec)
Diagonalizing the Hamiltonian                      ... done (   0.2 sec)
Back transforming the eigenvectors                 ... done (   0.0 sec)
Now organizing SCF variables                       ... done
                      ------------------
                      INITIAL GUESS DONE (   1.6 sec)
                      ------------------

--------------------
CPCM SOLVATION MODEL
--------------------
CPCM parameters:
  Epsilon                                         ...       3.0000
  Refrac                                          ...       1.3300
  Rsolv                                           ...       1.3000
  Surface type                                    ...    GEPOL SES
  Epsilon function type                           ...         CPCM
Radii:
 Radius for O  used is    3.2503 Bohr (=   1.7200 Ang.)
 Radius for C  used is    3.7795 Bohr (=   2.0000 Ang.)
 Radius for S  used is    4.0818 Bohr (=   2.1600 Ang.)
 Radius for H  used is    2.4566 Bohr (=   1.3000 Ang.)
 Radius for Na used is    3.3165 Bohr (=   1.7550 Ang.)
Calculating surface                               ...        done! (  0.1s)
GEPOL surface points                              ...          973
GEPOL Volume                                      ...    2135.8733
GEPOL Surface-area                                ...    1083.9399
Calculating surface distance matrix               ...        done! (  0.0s)
Performing Cholesky decomposition & store         ...        done! (  0.0s)
Overall time for CPCM initialization              ...                 0.1s
--------------
SCF ITERATIONS
--------------
ITER       Energy         Delta-E        Max-DP      RMS-DP      [F,P]     Damp
               ***  Starting incremental Fock matrix formation  ***
[compute-0-13.local:06207] 7 more processes have sent help message help-mpi-btl-base.txt / btl:no-nics
[compute-0-13.local:06207] Set MCA parameter "orte_base_help_aggregate" to 0 to see all help / error messages
  0  -1473.7892089781   0.000000000000 0.13146606  0.00114066  0.3328287 0.7000
  1  -1474.0791432050  -0.289934226870 0.08489748  0.00102011  0.1437053 0.7000
                               ***Turning on DIIS***
  2  -1474.1940723980  -0.114929193011 0.15950479  0.00195911  0.0456914 0.0000
  3  -1474.3994501979  -0.205377799977 0.08318173  0.00067976  0.0749740 0.0000
  4  -1474.4294891529  -0.030038954940 0.01949290  0.00019140  0.0134903 0.0000
                      *** Initiating the SOSCF procedure ***
                           *** Shutting down DIIS ***
                      *** Re-Reading the Fockian *** 
                      *** Removing any level shift *** 
ITER      Energy       Delta-E        Grad      Rot      Max-DP    RMS-DP
  5  -1474.43092892  -0.0014397711  0.000774  0.000774  0.008485  0.000089
               *** Restarting incremental Fock matrix formation ***
  6  -1474.43104027  -0.0001113443  0.000778  0.002534  0.003165  0.000047
  7  -1474.43107730  -0.0000370315  0.000573  0.001726  0.004940  0.000063
  8  -1474.43109463  -0.0000173313  0.000210  0.000359  0.001222  0.000011
  9  -1474.43109704  -0.0000024067  0.000094  0.000150  0.000550  0.000007
 10  -1474.43109749  -0.0000004543  0.000029  0.000086  0.000277  0.000004
 11  -1474.43109759  -0.0000000933  0.000014  0.000040  0.000130  0.000001
 12  -1474.43109760  -0.0000000120  0.000008  0.000017  0.000046  0.000000
 13  -1474.43109761  -0.0000000094  0.000003  0.000010  0.000055  0.000001
                  ***Gradient check signals convergence***
              ***Rediagonalizing the Fockian in SOSCF/NRSCF***

               *****************************************************
               *                     SUCCESS                       *
               *           SCF CONVERGED AFTER  14 CYCLES          *
               *****************************************************

Setting up the final grid:

General Integration Accuracy     IntAcc      ...  4.670
Radial Grid Type                 RadialGrid  ... Gauss-Chebyshev
Angular Grid (max. acc.)         AngularGrid ... Lebedev-302
Angular grid pruning method      GridPruning ... 3 (G Style)
Weight generation scheme         WeightScheme... Becke
Basis function cutoff            BFCut       ...    1.0000e-11
Integration weight cutoff        WCut        ...    1.0000e-14
Grids for H and He will be reduced by one unit

# of grid points (after initial pruning)     ... 155166 (   0.0 sec)
# of grid points (after weights+screening)   ... 138662 (   0.3 sec)
nearest neighbour list constructed           ...    0.0 sec
Grid point re-assignment to atoms done       ...    0.0 sec
Grid point division into batches done        ...    0.8 sec
Reduced shell lists constructed in    1.2 sec

Total number of grid points                  ...   138662
Total number of batches                      ...     2181
Average number of points per batch           ...       63
Average number of grid points per atom       ...     4952
Average number of shells per batch           ...   124.96 (47.69%)
Average number of basis functions per batch  ...   335.53 (47.93%)
Average number of large shells per batch     ...    90.35 (72.31%)
Average number of large basis fcns per batch ...   239.07 (71.25%)
Maximum spatial batch extension              ...  13.53,  7.38, 21.35 au
Average spatial batch extension              ...   0.23,  0.21,  0.29 au

Final grid set up in    1.6 sec
Final integration                            ... done (   1.7 sec)
Change in XC energy                          ...     0.003930484
Integrated number of electrons               ...   157.999823705
Previous integrated no of electrons          ...   158.012255835

----------------
TOTAL SCF ENERGY
----------------

Total Energy       :        -1474.42716713 Eh          -40121.20294 eV

Components:
Nuclear Repulsion  :         1697.92974843 Eh           46203.01737 eV
Electronic Energy  :        -3172.35691556 Eh          -86324.22031 eV
One Electron Energy:        -5403.05981472 Eh         -147024.73215 eV
Two Electron Energy:         2230.70289916 Eh           60700.51184 eV
CPCM Dielectric    :           -0.06528311 Eh              -1.77644 eV

Virial components:
Potential Energy   :        -2942.48393701 Eh          -80069.05856 eV
Kinetic Energy     :         1468.05676988 Eh           39947.85562 eV
Virial Ratio       :            2.00433934


DFT components:
N(Alpha)           :       78.999911852568 electrons
N(Beta)            :       78.999911852568 electrons
N(Total)           :      157.999823705136 electrons
E(XC)              :     -114.113656467001 Eh       
DFET-embed. en.    :        0.000000000000 Eh       
CPCM Solvation Model Properties:
Surface-charge          :           -0.03116196
Charge-correction       :            0.00011271 Eh               0.00307 eV
Free-energy (cav+disp)  :            0.00537694 Eh               0.14631 eV
Corrected G(solv)       :        -1474.42167748 Eh          -40121.05356 eV

---------------
SCF CONVERGENCE
---------------

  Last Energy change         ...   -6.3724e-09  Tolerance :   1.0000e-08
  Last MAX-Density change    ...    2.3935e-05  Tolerance :   1.0000e-07
  Last RMS-Density change    ...    2.1667e-07  Tolerance :   5.0000e-09
  Last Orbital Gradient      ...    1.6628e-06  Tolerance :   1.0000e-05
  Last Orbital Rotation      ...    4.2208e-06  Tolerance :   1.0000e-05

             **** THE GBW FILE WAS UPDATED (AQ.gbw) ****
             **** DENSITY FILE WAS UPDATED (AQ.scfp) ****
             **** ENERGY FILE WAS UPDATED (AQ.en.tmp) ****
             **** THE GBW FILE WAS UPDATED (AQ.gbw) ****
             **** DENSITY FILE WAS UPDATED (AQ.scfp) ****
----------------
ORBITAL ENERGIES
----------------

  NO   OCC          E(Eh)            E(eV) 
   0   2.0000     -89.149427     -2425.8792 
   1   2.0000     -38.589237     -1050.0665 
   2   2.0000     -19.241113      -523.5773 
   3   2.0000     -19.238609      -523.5092 
   4   2.0000     -19.198434      -522.4160 
   5   2.0000     -19.197219      -522.3829 
   6   2.0000     -19.194273      -522.3027 
   7   2.0000     -10.392190      -282.7859 
   8   2.0000     -10.391005      -282.7536 
   9   2.0000     -10.346261      -281.5361 
  10   2.0000     -10.326144      -280.9887 
  11   2.0000     -10.323920      -280.9281 
  12   2.0000     -10.321938      -280.8742 
  13   2.0000     -10.319092      -280.7968 
  14   2.0000     -10.316227      -280.7188 
  15   2.0000     -10.315755      -280.7060 
  16   2.0000     -10.312033      -280.6047 
  17   2.0000     -10.303909      -280.3836 
  18   2.0000     -10.303644      -280.3764 
  19   2.0000     -10.301877      -280.3283 
  20   2.0000     -10.301333      -280.3135 
  21   2.0000      -8.210086      -223.4078 
  22   2.0000      -6.162882      -167.7006 
  23   2.0000      -6.162764      -167.6973 
  24   2.0000      -6.162282      -167.6842 
  25   2.0000      -2.353549       -64.0433 
  26   2.0000      -1.274342       -34.6766 
  27   2.0000      -1.274291       -34.6752 
  28   2.0000      -1.273817       -34.6623 
  29   2.0000      -1.178828       -32.0775 
  30   2.0000      -1.175590       -31.9894 
  31   2.0000      -1.170917       -31.8623 
  32   2.0000      -1.045394       -28.4466 
  33   2.0000      -1.018031       -27.7020 
  34   2.0000      -1.002652       -27.2836 
  35   2.0000      -1.000533       -27.2259 
  36   2.0000      -0.939409       -25.5626 
  37   2.0000      -0.903625       -24.5889 
  38   2.0000      -0.893392       -24.3104 
  39   2.0000      -0.889080       -24.1931 
  40   2.0000      -0.814352       -22.1596 
  41   2.0000      -0.794542       -21.6206 
  42   2.0000      -0.767038       -20.8722 
  43   2.0000      -0.736070       -20.0295 
  44   2.0000      -0.720755       -19.6127 
  45   2.0000      -0.692421       -18.8417 
  46   2.0000      -0.668342       -18.1865 
  47   2.0000      -0.649436       -17.6721 
  48   2.0000      -0.610775       -16.6200 
  49   2.0000      -0.595447       -16.2029 
  50   2.0000      -0.592071       -16.1111 
  51   2.0000      -0.587892       -15.9974 
  52   2.0000      -0.564127       -15.3507 
  53   2.0000      -0.556896       -15.1539 
  54   2.0000      -0.555537       -15.1169 
  55   2.0000      -0.548631       -14.9290 
  56   2.0000      -0.545555       -14.8453 
  57   2.0000      -0.542031       -14.7494 
  58   2.0000      -0.540225       -14.7003 
  59   2.0000      -0.521086       -14.1795 
  60   2.0000      -0.517969       -14.0947 
  61   2.0000      -0.510599       -13.8941 
  62   2.0000      -0.497449       -13.5363 
  63   2.0000      -0.477745       -13.0001 
  64   2.0000      -0.471464       -12.8292 
  65   2.0000      -0.469456       -12.7745 
  66   2.0000      -0.455466       -12.3939 
  67   2.0000      -0.417567       -11.3626 
  68   2.0000      -0.402524       -10.9532 
  69   2.0000      -0.393996       -10.7212 
  70   2.0000      -0.384101       -10.4519 
  71   2.0000      -0.380891       -10.3646 
  72   2.0000      -0.370363       -10.0781 
  73   2.0000      -0.369137       -10.0447 
  74   2.0000      -0.363755        -9.8983 
  75   2.0000      -0.362240        -9.8570 
  76   2.0000      -0.358434        -9.7535 
  77   2.0000      -0.345532        -9.4024 
  78   2.0000      -0.329686        -8.9712 
  79   0.0000      -0.050697        -1.3795 
  80   0.0000      -0.009684        -0.2635 
  81   0.0000       0.019874         0.5408 
  82   0.0000       0.023925         0.6510 
  83   0.0000       0.045111         1.2275 
  84   0.0000       0.070071         1.9067 
  85   0.0000       0.070752         1.9253 
  86   0.0000       0.078091         2.1250 
  87   0.0000       0.101165         2.7528 
  88   0.0000       0.118464         3.2236 
  89   0.0000       0.122792         3.3414 
  90   0.0000       0.128687         3.5018 
  91   0.0000       0.129550         3.5252 
  92   0.0000       0.139880         3.8063 
  93   0.0000       0.158685         4.3180 
  94   0.0000       0.166532         4.5316 
  95   0.0000       0.168498         4.5851 
  96   0.0000       0.181402         4.9362 
  97   0.0000       0.189073         5.1449 
  98   0.0000       0.192495         5.2380 
  99   0.0000       0.198948         5.4136 
 100   0.0000       0.205973         5.6048 
 101   0.0000       0.209590         5.7032 
 102   0.0000       0.224978         6.1220 
 103   0.0000       0.227973         6.2035 
 104   0.0000       0.245880         6.6907 
 105   0.0000       0.251961         6.8562 
 106   0.0000       0.256825         6.9886 
 107   0.0000       0.257127         6.9968 
 108   0.0000       0.261466         7.1148 
 109   0.0000       0.262430         7.1411 
 110   0.0000       0.266848         7.2613 
 111   0.0000       0.267713         7.2848 
 112   0.0000       0.275954         7.5091 
 113   0.0000       0.281629         7.6635 
 114   0.0000       0.283428         7.7125 
 115   0.0000       0.289550         7.8791 
 116   0.0000       0.296559         8.0698 
 117   0.0000       0.301197         8.1960 
 118   0.0000       0.302005         8.2180 
 119   0.0000       0.302871         8.2415 
 120   0.0000       0.308968         8.4075 
 121   0.0000       0.312124         8.4933 
 122   0.0000       0.313520         8.5313 
 123   0.0000       0.317317         8.6346 
 124   0.0000       0.319964         8.7067 
 125   0.0000       0.324079         8.8186 
 126   0.0000       0.331806         9.0289 
 127   0.0000       0.333590         9.0774 
 128   0.0000       0.336215         9.1489 
 129   0.0000       0.342850         9.3294 
 130   0.0000       0.361639         9.8407 
 131   0.0000       0.367569        10.0021 
 132   0.0000       0.371155        10.0996 
 133   0.0000       0.376739        10.2516 
 134   0.0000       0.381709        10.3868 
 135   0.0000       0.384168        10.4538 
 136   0.0000       0.391466        10.6523 
 137   0.0000       0.394302        10.7295 
 138   0.0000       0.399926        10.8825 
 139   0.0000       0.403240        10.9727 
 140   0.0000       0.411147        11.1879 
 141   0.0000       0.414506        11.2793 
 142   0.0000       0.428450        11.6587 
 143   0.0000       0.433827        11.8050 
 144   0.0000       0.437068        11.8932 
 145   0.0000       0.441910        12.0250 
 146   0.0000       0.443264        12.0618 
 147   0.0000       0.445196        12.1144 
 148   0.0000       0.457313        12.4441 
 149   0.0000       0.463792        12.6204 
 150   0.0000       0.472527        12.8581 
 151   0.0000       0.478818        13.0293 
 152   0.0000       0.489040        13.3075 
 153   0.0000       0.492447        13.4002 
 154   0.0000       0.494766        13.4633 
 155   0.0000       0.498516        13.5653 
 156   0.0000       0.508234        13.8297 
 157   0.0000       0.519079        14.1249 
 158   0.0000       0.522828        14.2269 
 159   0.0000       0.535022        14.5587 
 160   0.0000       0.538140        14.6435 
 161   0.0000       0.542602        14.7649 
 162   0.0000       0.547109        14.8876 
 163   0.0000       0.552694        15.0396 
 164   0.0000       0.561857        15.2889 
 165   0.0000       0.566533        15.4161 
 166   0.0000       0.570812        15.5326 
 167   0.0000       0.572460        15.5774 
 168   0.0000       0.574554        15.6344 
 169   0.0000       0.575593        15.6627 
 170   0.0000       0.579095        15.7580 
 171   0.0000       0.586058        15.9475 
 172   0.0000       0.588511        16.0142 
 173   0.0000       0.598322        16.2812 
 174   0.0000       0.605918        16.4879 
 175   0.0000       0.609061        16.5734 
 176   0.0000       0.615218        16.7409 
 177   0.0000       0.631929        17.1957 
 178   0.0000       0.636359        17.3162 
 179   0.0000       0.640650        17.4330 
 180   0.0000       0.658798        17.9268 
 181   0.0000       0.666791        18.1443 
 182   0.0000       0.675849        18.3908 
 183   0.0000       0.681932        18.5563 
 184   0.0000       0.687086        18.6966 
 185   0.0000       0.697793        18.9879 
 186   0.0000       0.705682        19.2026 
 187   0.0000       0.711153        19.3514 
 188   0.0000       0.716856        19.5067 
 189   0.0000       0.718289        19.5456 
 190   0.0000       0.730532        19.8788 
 191   0.0000       0.737555        20.0699 
 192   0.0000       0.739540        20.1239 
 193   0.0000       0.745764        20.2933 
 194   0.0000       0.753885        20.5143 
 195   0.0000       0.755751        20.5650 
 196   0.0000       0.763643        20.7798 
 197   0.0000       0.767791        20.8927 
 198   0.0000       0.771744        21.0002 
 199   0.0000       0.780443        21.2369 
 200   0.0000       0.791539        21.5389 
 201   0.0000       0.792841        21.5743 
 202   0.0000       0.797422        21.6990 
 203   0.0000       0.802270        21.8309 
 204   0.0000       0.810247        22.0479 
 205   0.0000       0.813578        22.1386 
 206   0.0000       0.815955        22.2033 
 207   0.0000       0.829086        22.5606 
 208   0.0000       0.833303        22.6753 
 209   0.0000       0.840007        22.8577 
 210   0.0000       0.840943        22.8832 
 211   0.0000       0.856434        23.3047 
 212   0.0000       0.859300        23.3827 
 213   0.0000       0.867671        23.6105 
 214   0.0000       0.871486        23.7143 
 215   0.0000       0.877213        23.8702 
 216   0.0000       0.880289        23.9539 
 217   0.0000       0.886359        24.1191 
 218   0.0000       0.888439        24.1757 
 219   0.0000       0.908392        24.7186 
 220   0.0000       0.916499        24.9392 
 221   0.0000       0.924305        25.1516 
 222   0.0000       0.935104        25.4455 
 223   0.0000       0.940360        25.5885 
 224   0.0000       0.946908        25.7667 
 225   0.0000       0.958614        26.0852 
 226   0.0000       0.963135        26.2082 
 227   0.0000       0.968218        26.3466 
 228   0.0000       0.972513        26.4634 
 229   0.0000       0.974140        26.5077 
 230   0.0000       0.985118        26.8064 
 231   0.0000       0.993220        27.0269 
 232   0.0000       1.008907        27.4538 
 233   0.0000       1.027214        27.9519 
 234   0.0000       1.032731        28.1020 
 235   0.0000       1.043066        28.3833 
 236   0.0000       1.048595        28.5337 
 237   0.0000       1.052923        28.6515 
 238   0.0000       1.058035        28.7906 
 239   0.0000       1.063233        28.9321 
 240   0.0000       1.064458        28.9654 
 241   0.0000       1.085768        29.5453 
 242   0.0000       1.104870        30.0650 
 243   0.0000       1.113210        30.2920 
 244   0.0000       1.123329        30.5673 
 245   0.0000       1.140724        31.0407 
 246   0.0000       1.148978        31.2653 
 247   0.0000       1.158620        31.5277 
 248   0.0000       1.167704        31.7748 
 249   0.0000       1.169716        31.8296 
 250   0.0000       1.172419        31.9031 
 251   0.0000       1.182132        32.1674 
 252   0.0000       1.185257        32.2525 
 253   0.0000       1.188608        32.3437 
 254   0.0000       1.200861        32.6771 
 255   0.0000       1.204258        32.7695 
 256   0.0000       1.213756        33.0280 
 257   0.0000       1.230814        33.4922 
 258   0.0000       1.234010        33.5791 
 259   0.0000       1.247755        33.9531 
 260   0.0000       1.266169        34.4542 
 261   0.0000       1.281797        34.8795 
 262   0.0000       1.290779        35.1239 
 263   0.0000       1.304133        35.4873 
 264   0.0000       1.310337        35.6561 
 265   0.0000       1.316104        35.8130 
 266   0.0000       1.317552        35.8524 
 267   0.0000       1.325248        36.0618 
 268   0.0000       1.327304        36.1178 
 269   0.0000       1.332191        36.2508 
 270   0.0000       1.334270        36.3073 
 271   0.0000       1.340432        36.4750 
 272   0.0000       1.344445        36.5842 
 273   0.0000       1.354140        36.8480 
 274   0.0000       1.359026        36.9810 
 275   0.0000       1.369919        37.2774 
 276   0.0000       1.383876        37.6572 
 277   0.0000       1.403507        38.1914 
 278   0.0000       1.407183        38.2914 
 279   0.0000       1.413802        38.4715 
 280   0.0000       1.430625        38.9293 
 281   0.0000       1.450903        39.4811 
 282   0.0000       1.459549        39.7164 
 283   0.0000       1.463296        39.8183 
 284   0.0000       1.476925        40.1892 
 285   0.0000       1.481002        40.3001 
 286   0.0000       1.493918        40.6516 
 287   0.0000       1.504935        40.9514 
 288   0.0000       1.512176        41.1484 
 289   0.0000       1.515197        41.2306 
 290   0.0000       1.533521        41.7292 
 291   0.0000       1.540726        41.9253 
 292   0.0000       1.541821        41.9551 
 293   0.0000       1.552118        42.2353 
 294   0.0000       1.561616        42.4937 
 295   0.0000       1.564062        42.5603 
 296   0.0000       1.570703        42.7410 
 297   0.0000       1.583611        43.0922 
 298   0.0000       1.593103        43.3505 
 299   0.0000       1.596288        43.4372 
 300   0.0000       1.607010        43.7290 
 301   0.0000       1.609712        43.8025 
 302   0.0000       1.613124        43.8953 
 303   0.0000       1.638068        44.5741 
 304   0.0000       1.648602        44.8607 
 305   0.0000       1.660194        45.1762 
 306   0.0000       1.662830        45.2479 
 307   0.0000       1.669212        45.4216 
 308   0.0000       1.679243        45.6945 
 309   0.0000       1.687591        45.9217 
 310   0.0000       1.695266        46.1305 
 311   0.0000       1.707907        46.4745 
 312   0.0000       1.712756        46.6065 
 313   0.0000       1.715825        46.6900 
 314   0.0000       1.719607        46.7929 
 315   0.0000       1.728310        47.0297 
 316   0.0000       1.741291        47.3829 
 317   0.0000       1.750142        47.6238 
 318   0.0000       1.753677        47.7200 
 319   0.0000       1.761345        47.9286 
 320   0.0000       1.769714        48.1564 
 321   0.0000       1.773122        48.2491 
 322   0.0000       1.777242        48.3612 
 323   0.0000       1.783347        48.5274 
 324   0.0000       1.796673        48.8899 
 325   0.0000       1.809869        49.2490 
 326   0.0000       1.818174        49.4750 
 327   0.0000       1.828537        49.7570 
 328   0.0000       1.856847        50.5274 
 329   0.0000       1.860151        50.6173 
 330   0.0000       1.872196        50.9450 
 331   0.0000       1.879271        51.1376 
 332   0.0000       1.895185        51.5706 
 333   0.0000       1.903902        51.8078 
 334   0.0000       1.923237        52.3340 
 335   0.0000       1.928158        52.4678 
 336   0.0000       1.932973        52.5989 
 337   0.0000       1.937573        52.7240 
 338   0.0000       1.952210        53.1223 
 339   0.0000       1.977062        53.7986 
 340   0.0000       1.978257        53.8311 
 341   0.0000       1.995148        54.2907 
 342   0.0000       1.997306        54.3495 
 343   0.0000       2.031742        55.2865 
 344   0.0000       2.038161        55.4612 
 345   0.0000       2.040525        55.5255 
 346   0.0000       2.053020        55.8655 
 347   0.0000       2.070382        56.3380 
 348   0.0000       2.084358        56.7183 
 349   0.0000       2.106125        57.3106 
 350   0.0000       2.110863        57.4395 
 351   0.0000       2.116033        57.5802 
 352   0.0000       2.133466        58.0546 
 353   0.0000       2.144544        58.3560 
 354   0.0000       2.153876        58.6099 
 355   0.0000       2.162752        58.8515 
 356   0.0000       2.166252        58.9467 
 357   0.0000       2.187549        59.5262 
 358   0.0000       2.201601        59.9086 
 359   0.0000       2.210563        60.1525 
 360   0.0000       2.221090        60.4389 
 361   0.0000       2.225271        60.5527 
 362   0.0000       2.250418        61.2370 
 363   0.0000       2.251180        61.2577 
 364   0.0000       2.256525        61.4032 
 365   0.0000       2.266434        61.6728 
 366   0.0000       2.272426        61.8359 
 367   0.0000       2.275360        61.9157 
 368   0.0000       2.277661        61.9783 
 369   0.0000       2.295687        62.4688 
 370   0.0000       2.298783        62.5531 
 371   0.0000       2.311958        62.9116 
 372   0.0000       2.336267        63.5731 
 373   0.0000       2.352313        64.0097 
 374   0.0000       2.354045        64.0568 
 375   0.0000       2.360802        64.2407 
 376   0.0000       2.385457        64.9116 
 377   0.0000       2.396897        65.2229 
 378   0.0000       2.412071        65.6358 
 379   0.0000       2.414054        65.6898 
 380   0.0000       2.429385        66.1069 
 381   0.0000       2.434442        66.2445 
 382   0.0000       2.436429        66.2986 
 383   0.0000       2.437883        66.3382 
 384   0.0000       2.445578        66.5476 
 385   0.0000       2.464723        67.0685 
 386   0.0000       2.486148        67.6515 
 387   0.0000       2.494577        67.8809 
 388   0.0000       2.517451        68.5033 
 389   0.0000       2.531292        68.8799 
 390   0.0000       2.537809        69.0573 
 391   0.0000       2.564700        69.7890 
 392   0.0000       2.578397        70.1618 
 393   0.0000       2.592378        70.5422 
 394   0.0000       2.602005        70.8041 
 395   0.0000       2.606300        70.9210 
 396   0.0000       2.610155        71.0259 
 397   0.0000       2.620854        71.3171 
 398   0.0000       2.642056        71.8940 
 399   0.0000       2.643955        71.9457 
 400   0.0000       2.676610        72.8342 
 401   0.0000       2.686388        73.1003 
 402   0.0000       2.695266        73.3419 
 403   0.0000       2.705819        73.6291 
 404   0.0000       2.707774        73.6823 
 405   0.0000       2.716428        73.9178 
 406   0.0000       2.727351        74.2150 
 407   0.0000       2.733978        74.3953 
 408   0.0000       2.739791        74.5535 
 409   0.0000       2.751531        74.8730 
 410   0.0000       2.754859        74.9635 
 411   0.0000       2.770316        75.3841 
 412   0.0000       2.772151        75.4341 
 413   0.0000       2.789931        75.9179 
 414   0.0000       2.798864        76.1610 
 415   0.0000       2.805789        76.3494 
 416   0.0000       2.830086        77.0105 
 417   0.0000       2.835753        77.1648 
 418   0.0000       2.837114        77.2018 
 419   0.0000       2.846057        77.4452 
 420   0.0000       2.863243        77.9128 
 421   0.0000       2.864534        77.9479 
 422   0.0000       2.879562        78.3569 
 423   0.0000       2.885999        78.5320 
 424   0.0000       2.890136        78.6446 
 425   0.0000       2.897028        78.8321 
 426   0.0000       2.903553        79.0097 
 427   0.0000       2.908127        79.1342 
 428   0.0000       2.924337        79.5753 
 429   0.0000       2.929041        79.7033 
 430   0.0000       2.931294        79.7646 
 431   0.0000       2.942829        80.0785 
 432   0.0000       2.954688        80.4012 
 433   0.0000       2.962658        80.6180 
 434   0.0000       2.965478        80.6948 
 435   0.0000       2.967428        80.7478 
 436   0.0000       2.972067        80.8741 
 437   0.0000       2.975764        80.9747 
 438   0.0000       2.977700        81.0273 
 439   0.0000       2.984533        81.2133 
 440   0.0000       2.996805        81.5472 
 441   0.0000       3.000632        81.6513 
 442   0.0000       3.015309        82.0507 
 443   0.0000       3.024968        82.3136 
 444   0.0000       3.033864        82.5556 
 445   0.0000       3.042582        82.7929 
 446   0.0000       3.052229        83.0554 
 447   0.0000       3.064890        83.3999 
 448   0.0000       3.067574        83.4729 
 449   0.0000       3.079133        83.7875 
 450   0.0000       3.083501        83.9063 
 451   0.0000       3.089472        84.0688 
 452   0.0000       3.102307        84.4181 
 453   0.0000       3.108711        84.5923 
 454   0.0000       3.109975        84.6267 
 455   0.0000       3.115738        84.7835 
 456   0.0000       3.121846        84.9498 
 457   0.0000       3.135242        85.3143 
 458   0.0000       3.142289        85.5060 
 459   0.0000       3.147864        85.6577 
 460   0.0000       3.161570        86.0307 
 461   0.0000       3.175277        86.4037 
 462   0.0000       3.184449        86.6533 
 463   0.0000       3.189129        86.7806 
 464   0.0000       3.192498        86.8723 
 465   0.0000       3.200569        87.0919 
 466   0.0000       3.209732        87.3412 
 467   0.0000       3.224717        87.7490 
 468   0.0000       3.229443        87.8776 
 469   0.0000       3.237197        88.0886 
 470   0.0000       3.246202        88.3337 
 471   0.0000       3.248786        88.4040 
 472   0.0000       3.259337        88.6911 
 473   0.0000       3.271203        89.0139 
 474   0.0000       3.276402        89.1554 
 475   0.0000       3.281437        89.2924 
 476   0.0000       3.291849        89.5758 
 477   0.0000       3.305187        89.9387 
 478   0.0000       3.313194        90.1566 
 479   0.0000       3.322937        90.4217 
 480   0.0000       3.325205        90.4834 
 481   0.0000       3.333774        90.7166 
 482   0.0000       3.347264        91.0837 
 483   0.0000       3.349605        91.1474 
 484   0.0000       3.367559        91.6359 
 485   0.0000       3.389736        92.2394 
 486   0.0000       3.396016        92.4103 
 487   0.0000       3.402968        92.5995 
 488   0.0000       3.406620        92.6988 
 489   0.0000       3.415187        92.9320 
 490   0.0000       3.417212        92.9871 
 491   0.0000       3.436067        93.5001 
 492   0.0000       3.441258        93.6414 
 493   0.0000       3.453633        93.9781 
 494   0.0000       3.474240        94.5389 
 495   0.0000       3.482129        94.7536 
 496   0.0000       3.485704        94.8508 
 497   0.0000       3.496935        95.1564 
 498   0.0000       3.509678        95.5032 
 499   0.0000       3.512872        95.5901 
 500   0.0000       3.518586        95.7456 
 501   0.0000       3.526229        95.9536 
 502   0.0000       3.539221        96.3071 
 503   0.0000       3.541732        96.3754 
 504   0.0000       3.564610        96.9980 
 505   0.0000       3.571504        97.1856 
 506   0.0000       3.575507        97.2945 
 507   0.0000       3.577326        97.3440 
 508   0.0000       3.592840        97.7661 
 509   0.0000       3.593525        97.7848 
 510   0.0000       3.599229        97.9400 
 511   0.0000       3.619762        98.4987 
 512   0.0000       3.624246        98.6207 
 513   0.0000       3.629887        98.7743 
 514   0.0000       3.632251        98.8386 
 515   0.0000       3.645690        99.2043 
 516   0.0000       3.658778        99.5604 
 517   0.0000       3.669287        99.8464 
 518   0.0000       3.673150        99.9515 
 519   0.0000       3.685696       100.2929 
 520   0.0000       3.718994       101.1990 
 521   0.0000       3.724013       101.3355 
 522   0.0000       3.733742       101.6003 
 523   0.0000       3.757253       102.2401 
 524   0.0000       3.762775       102.3903 
 525   0.0000       3.777006       102.7776 
 526   0.0000       3.791648       103.1760 
 527   0.0000       3.803625       103.5019 
 528   0.0000       3.844723       104.6202 
 529   0.0000       3.865209       105.1777 
 530   0.0000       3.876772       105.4923 
 531   0.0000       3.894284       105.9689 
 532   0.0000       3.913335       106.4873 
 533   0.0000       3.923255       106.7572 
 534   0.0000       3.931898       106.9924 
 535   0.0000       3.942349       107.2768 
 536   0.0000       3.957905       107.7001 
 537   0.0000       3.974521       108.1522 
 538   0.0000       3.977330       108.2287 
 539   0.0000       3.986533       108.4791 
 540   0.0000       4.003666       108.9453 
 541   0.0000       4.036516       109.8392 
 542   0.0000       4.050854       110.2293 
 543   0.0000       4.056168       110.3739 
 544   0.0000       4.072846       110.8278 
 545   0.0000       4.074516       110.8732 
 546   0.0000       4.114092       111.9501 
 547   0.0000       4.122954       112.1913 
 548   0.0000       4.141778       112.7035 
 549   0.0000       4.154871       113.0598 
 550   0.0000       4.163549       113.2959 
 551   0.0000       4.201423       114.3265 
 552   0.0000       4.235034       115.2411 
 553   0.0000       4.236904       115.2920 
 554   0.0000       4.243236       115.4643 
 555   0.0000       4.249163       115.6256 
 556   0.0000       4.259411       115.9045 
 557   0.0000       4.262057       115.9765 
 558   0.0000       4.266657       116.1016 
 559   0.0000       4.285527       116.6151 
 560   0.0000       4.300971       117.0354 
 561   0.0000       4.307162       117.2038 
 562   0.0000       4.320217       117.5591 
 563   0.0000       4.346908       118.2854 
 564   0.0000       4.354245       118.4850 
 565   0.0000       4.361832       118.6915 
 566   0.0000       4.391310       119.4936 
 567   0.0000       4.401942       119.7829 
 568   0.0000       4.411907       120.0541 
 569   0.0000       4.416385       120.1759 
 570   0.0000       4.440310       120.8270 
 571   0.0000       4.458967       121.3347 
 572   0.0000       4.467626       121.5703 
 573   0.0000       4.498032       122.3977 
 574   0.0000       4.516162       122.8910 
 575   0.0000       4.533901       123.3737 
 576   0.0000       4.651859       126.5835 
 577   0.0000       4.654027       126.6425 
 578   0.0000       4.657093       126.7259 
 579   0.0000       4.662261       126.8666 
 580   0.0000       4.667168       127.0001 
 581   0.0000       4.685450       127.4976 
 582   0.0000       4.750063       129.2558 
 583   0.0000       4.760223       129.5322 
 584   0.0000       4.778180       130.0209 
 585   0.0000       4.784233       130.1856 
 586   0.0000       4.812400       130.9521 
 587   0.0000       4.860426       132.2589 
 588   0.0000       4.872107       132.5768 
 589   0.0000       4.908072       133.5554 
 590   0.0000       4.924776       134.0100 
 591   0.0000       4.963700       135.0691 
 592   0.0000       5.001358       136.0939 
 593   0.0000       5.062904       137.7686 
 594   0.0000       5.087526       138.4386 
 595   0.0000       5.105270       138.9215 
 596   0.0000       5.135627       139.7475 
 597   0.0000       5.167513       140.6152 
 598   0.0000       5.190653       141.2448 
 599   0.0000       5.193792       141.3303 
 600   0.0000       5.240572       142.6032 
 601   0.0000       5.269537       143.3914 
 602   0.0000       5.274464       143.5254 
 603   0.0000       5.275967       143.5664 
 604   0.0000       5.276939       143.5928 
 605   0.0000       5.279763       143.6696 
 606   0.0000       5.285494       143.8256 
 607   0.0000       5.288815       143.9160 
 608   0.0000       5.294018       144.0576 
 609   0.0000       5.301126       144.2510 
 610   0.0000       5.307469       144.4236 
 611   0.0000       5.309178       144.4701 
 612   0.0000       5.310549       144.5074 
 613   0.0000       5.326216       144.9337 
 614   0.0000       5.353368       145.6725 
 615   0.0000       5.362297       145.9155 
 616   0.0000       5.371032       146.1532 
 617   0.0000       5.380187       146.4023 
 618   0.0000       5.406097       147.1074 
 619   0.0000       5.408297       147.1672 
 620   0.0000       5.414955       147.3484 
 621   0.0000       5.415799       147.3714 
 622   0.0000       5.468597       148.8081 
 623   0.0000       5.487128       149.3124 
 624   0.0000       5.521164       150.2385 
 625   0.0000       5.527278       150.4049 
 626   0.0000       5.550701       151.0422 
 627   0.0000       5.592196       152.1714 
 628   0.0000       5.601623       152.4279 
 629   0.0000       5.613947       152.7633 
 630   0.0000       5.618994       152.9006 
 631   0.0000       5.638031       153.4186 
 632   0.0000       5.674847       154.4204 
 633   0.0000       5.684893       154.6938 
 634   0.0000       5.702085       155.1616 
 635   0.0000       5.703145       155.1905 
 636   0.0000       5.739984       156.1929 
 637   0.0000       5.760142       156.7414 
[...]
      dyz     :     0.049551
      dx2y2   :     0.157566
      dxy     :     0.170070
      f0      :     0.003917  f :     0.055564
      f+1     :     0.004338
      f-1     :     0.004142
      f+2     :     0.006504
      f-2     :     0.005180
      f+3     :     0.009581
      f-3     :     0.021902
  3 C s       :     2.752826  s :     2.752826
      pz      :     0.844891  p :     2.896168
      px      :     1.001968
      py      :     1.049309
      dz2     :     0.025065  d :     0.379853
      dxz     :     0.014113
      dyz     :     0.074246
      dx2y2   :     0.162315
      dxy     :     0.104115
      f0      :     0.003225  f :     0.043814
      f+1     :     0.002952
      f-1     :     0.004354
      f+2     :     0.001517
      f-2     :     0.007517
      f+3     :     0.008070
      f-3     :     0.016179
  4 C s       :     2.762470  s :     2.762470
      pz      :     0.855996  p :     2.923452
      px      :     1.050063
      py      :     1.017393
      dz2     :     0.025983  d :     0.385019
      dxz     :     0.057006
      dyz     :     0.029150
      dx2y2   :     0.118248
      dxy     :     0.154632
      f0      :     0.003145  f :     0.043714
      f+1     :     0.004027
      f-1     :     0.003445
      f+2     :     0.005997
      f-2     :     0.002826
      f+3     :     0.007973
      f-3     :     0.016301
  5 C s       :     2.762510  s :     2.762510
      pz      :     0.855248  p :     2.923058
      px      :     1.052911
      py      :     1.014899
      dz2     :     0.025806  d :     0.385044
      dxz     :     0.059145
      dyz     :     0.027196
      dx2y2   :     0.123053
      dxy     :     0.149844
      f0      :     0.003152  f :     0.043711
      f+1     :     0.004082
      f-1     :     0.003379
      f+2     :     0.005570
      f-2     :     0.003247
      f+3     :     0.007954
      f-3     :     0.016327
  6 C s       :     2.752858  s :     2.752858
      pz      :     0.844753  p :     2.896022
      px      :     1.002806
      py      :     1.048463
      dz2     :     0.025066  d :     0.379613
      dxz     :     0.014107
      dyz     :     0.074029
      dx2y2   :     0.163084
      dxy     :     0.103328
      f0      :     0.003226  f :     0.043804
      f+1     :     0.002953
      f-1     :     0.004357
      f+2     :     0.001544
      f-2     :     0.007470
      f+3     :     0.008093
      f-3     :     0.016161
  7 C s       :     2.694028  s :     2.694028
      pz      :     0.849579  p :     2.839140
      px      :     1.006000
      py      :     0.983561
      dz2     :     0.035946  d :     0.487262
      dxz     :     0.072964
      dyz     :     0.050857
      dx2y2   :     0.154715
      dxy     :     0.172781
      f0      :     0.003914  f :     0.055543
      f+1     :     0.004324
      f-1     :     0.004152
      f+2     :     0.006841
      f-2     :     0.004858
      f+3     :     0.009655
      f-3     :     0.021798
  8 C s       :     2.729859  s :     2.729859
      pz      :     0.684794  p :     2.628477
      px      :     0.963263
      py      :     0.980420
      dz2     :     0.049517  d :     0.757771
      dxz     :     0.129502
      dyz     :     0.064824
      dx2y2   :     0.200966
      dxy     :     0.312963
      f0      :     0.007137  f :     0.109809
      f+1     :     0.009952
      f-1     :     0.003764
      f+2     :     0.017343
      f-2     :     0.005784
      f+3     :     0.016989
      f-3     :     0.048840
  9 O s       :     3.387871  s :     3.387871
      pz      :     1.263520  p :     4.410394
      px      :     1.497446
      py      :     1.649429
      dz2     :     0.007462  d :     0.068564
      dxz     :     0.013396
      dyz     :     0.000293
      dx2y2   :     0.023960
      dxy     :     0.023453
      f0      :     0.000393  f :     0.006091
      f+1     :     0.000864
      f-1     :     0.000129
      f+2     :     0.000775
      f-2     :     0.000059
      f+3     :     0.001708
      f-3     :     0.002163
 10 C s       :     2.692768  s :     2.692768
      pz      :     0.849779  p :     2.836157
      px      :     1.007694
      py      :     0.978684
      dz2     :     0.035868  d :     0.486120
      dxz     :     0.072947
      dyz     :     0.049471
      dx2y2   :     0.157589
      dxy     :     0.170245
      f0      :     0.003949  f :     0.055675
      f+1     :     0.004369
      f-1     :     0.004163
      f+2     :     0.006390
      f-2     :     0.005223
      f+3     :     0.009613
      f-3     :     0.021968
 11 C s       :     2.749426  s :     2.749426
      pz      :     0.829628  p :     2.875835
      px      :     1.007562
      py      :     1.038644
      dz2     :     0.025593  d :     0.383136
      dxz     :     0.015626
      dyz     :     0.076417
      dx2y2   :     0.161019
      dxy     :     0.104482
      f0      :     0.003427  f :     0.044768
      f+1     :     0.002959
      f-1     :     0.004471
      f+2     :     0.001644
      f-2     :     0.007950
      f+3     :     0.008218
      f-3     :     0.016100
 12 C s       :     2.758085  s :     2.758085
      pz      :     0.881208  p :     2.941084
      px      :     1.056087
      py      :     1.003789
      dz2     :     0.037604  d :     0.481886
      dxz     :     0.068762
      dyz     :     0.046687
      dx2y2   :     0.142013
      dxy     :     0.186820
      f0      :     0.003844  f :     0.052303
      f+1     :     0.004594
      f-1     :     0.004340
      f+2     :     0.006271
      f-2     :     0.004152
      f+3     :     0.009369
      f-3     :     0.019733
 13 S s       :     4.688911  s :     4.688911
      pz      :     2.851501  p :     8.565675
      px      :     2.851525
      py      :     2.862649
      dz2     :     0.436510  d :     1.864650
      dxz     :     0.422784
      dyz     :     0.297845
      dx2y2   :     0.290828
      dxy     :     0.416684
      f0      :     0.072668  f :     0.375788
      f+1     :     0.064847
      f-1     :     0.050927
      f+2     :     0.042588
      f-2     :     0.066386
      f+3     :     0.033810
      f-3     :     0.044561
 14 O s       :     3.509534  s :     3.509534
      pz      :     1.645307  p :     4.713401
      px      :     1.566728
      py      :     1.501366
      dz2     :     0.009032  d :     0.061501
      dxz     :     0.007015
      dyz     :     0.008288
      dx2y2   :     0.011875
      dxy     :     0.025292
      f0      :     0.000418  f :     0.004192
      f+1     :     0.000387
      f-1     :     0.000493
      f+2     :     0.000151
      f-2     :     0.000727
      f+3     :     0.001093
      f-3     :     0.000923
 15 O s       :     3.523748  s :     3.523748
      pz      :     1.569281  p :     4.708515
      px      :     1.548766
      py      :     1.590468
      dz2     :     0.011230  d :     0.062310
      dxz     :     0.027529
      dyz     :     0.006411
      dx2y2   :     0.010146
      dxy     :     0.006995
      f0      :     0.000535  f :     0.004274
      f+1     :     0.001273
      f-1     :     0.000166
      f+2     :     0.001100
      f-2     :     0.000611
      f+3     :     0.000296
      f-3     :     0.000294
 16 O s       :     3.512382  s :     3.512382
      pz      :     1.512762  p :     4.712703
      px      :     1.605504
      py      :     1.594437
      dz2     :     0.025619  d :     0.061374
      dxz     :     0.019860
      dyz     :     0.010730
      dx2y2   :     0.002392
      dxy     :     0.002773
      f0      :     0.001197  f :     0.004158
      f+1     :     0.001465
      f-1     :     0.000622
      f+2     :     0.000375
      f-2     :     0.000412
      f+3     :     0.000040
      f-3     :     0.000047
 17 C s       :     2.759408  s :     2.759408
      pz      :     0.840617  p :     2.904141
      px      :     1.039511
      py      :     1.024013
      dz2     :     0.026279  d :     0.388130
      dxz     :     0.062039
      dyz     :     0.028057
      dx2y2   :     0.126908
      dxy     :     0.144846
      f0      :     0.003330  f :     0.044608
      f+1     :     0.004204
      f-1     :     0.003371
      f+2     :     0.006059
      f-2     :     0.003260
      f+3     :     0.008142
      f-3     :     0.016242
 18 C s       :     2.751311  s :     2.751311
      pz      :     0.844040  p :     2.891534
      px      :     1.001884
      py      :     1.045609
      dz2     :     0.025082  d :     0.378442
      dxz     :     0.014321
      dyz     :     0.072264
      dx2y2   :     0.163485
      dxy     :     0.103291
      f0      :     0.003263  f :     0.043889
      f+1     :     0.002962
      f-1     :     0.004400
      f+2     :     0.001562
      f-2     :     0.007328
      f+3     :     0.008139
      f-3     :     0.016235
 19 C s       :     2.694182  s :     2.694182
      pz      :     0.840538  p :     2.831006
      px      :     1.006145
      py      :     0.984323
      dz2     :     0.036126  d :     0.487203
      dxz     :     0.072853
      dyz     :     0.051052
      dx2y2   :     0.154751
      dxy     :     0.172420
      f0      :     0.003938  f :     0.055614
      f+1     :     0.004324
      f-1     :     0.004157
      f+2     :     0.006848
      f-2     :     0.004891
      f+3     :     0.009654
      f-3     :     0.021803
 20 H s       :     0.774771  s :     0.774771
      pz      :     0.012296  p :     0.061052
      px      :     0.037967
      py      :     0.010790
 21 H s       :     0.769117  s :     0.769117
      pz      :     0.012052  p :     0.062111
      px      :     0.039260
      py      :     0.010799
 22 H s       :     0.776757  s :     0.776757
      pz      :     0.012323  p :     0.060949
      px      :     0.037744
      py      :     0.010882
 23 H s       :     0.784517  s :     0.784517
      pz      :     0.012351  p :     0.058887
      px      :     0.016568
      py      :     0.029969
 24 H s       :     0.776958  s :     0.776958
      pz      :     0.012338  p :     0.060933
      px      :     0.037575
      py      :     0.011020
 25 H s       :     0.784630  s :     0.784630
      pz      :     0.012331  p :     0.058904
      px      :     0.017505
      py      :     0.029068
 26 H s       :     0.776100  s :     0.776100
      pz      :     0.012012  p :     0.060945
      px      :     0.016172
      py      :     0.032761
 27 Nas       :     4.071590  s :     4.071590
      pz      :     2.043846  p :     6.192763
      px      :     2.058663
      py      :     2.090254
      dz2     :     0.018944  d :     0.183136
      dxz     :     0.016993
      dyz     :     0.052262
      dx2y2   :     0.054294
      dxy     :     0.040643


                      *****************************
                      * MAYER POPULATION ANALYSIS *
                      *****************************

  NA   - Mulliken gross atomic population
  ZA   - Total nuclear charge
  QA   - Mulliken gross atomic charge
  VA   - Mayer's total valence
  BVA  - Mayer's bonded valence
  FA   - Mayer's free valence

  ATOM       NA         ZA         QA         VA         BVA        FA
  0 O      8.3702     8.0000    -0.3702     2.1229     2.1229    -0.0000
  1 C      5.6537     6.0000     0.3463     3.9788     3.9788    -0.0000
  2 C      6.0184     6.0000    -0.0184     3.7327     3.7327    -0.0000
  3 C      6.1803     6.0000    -0.1803     3.8944     3.8944    -0.0000
  4 C      6.1180     6.0000    -0.1180     3.8708     3.8708    -0.0000
  5 C      6.1178     6.0000    -0.1178     3.8687     3.8687    -0.0000
  6 C      6.1880     6.0000    -0.1880     3.9027     3.9027    -0.0000
  7 C      6.0158     6.0000    -0.0158     3.7425     3.7425    -0.0000
  8 C      5.6524     6.0000     0.3476     3.9797     3.9797    -0.0000
  9 O      8.3689     8.0000    -0.3689     2.1242     2.1242    -0.0000
 10 C      5.9898     6.0000     0.0102     3.7446     3.7446    -0.0000
 11 C      6.2877     6.0000    -0.2877     3.9880     3.9880    -0.0000
 12 C      5.8380     6.0000     0.1620     3.6973     3.6973    -0.0000
 13 S     15.1611    16.0000     0.8389     6.0450     6.0450    -0.0000
 14 O      8.5885     8.0000    -0.5885     1.8372     1.8372    -0.0000
 15 O      8.5565     8.0000    -0.5565     1.8615     1.8615    -0.0000
 16 O      8.5729     8.0000    -0.5729     1.8484     1.8484    -0.0000
 17 C      6.1602     6.0000    -0.1602     3.8944     3.8944    -0.0000
 18 C      6.1836     6.0000    -0.1836     3.8981     3.8981    -0.0000
 19 C      6.0060     6.0000    -0.0060     3.7336     3.7336    -0.0000
 20 H      0.8327     1.0000     0.1673     0.9873     0.9873    -0.0000
 21 H      0.8235     1.0000     0.1765     1.0040     1.0040    -0.0000
 22 H      0.8329     1.0000     0.1671     0.9862     0.9862    -0.0000
 23 H      0.8373     1.0000     0.1627     0.9641     0.9641    -0.0000
 24 H      0.8333     1.0000     0.1667     0.9860     0.9860    -0.0000
 25 H      0.8383     1.0000     0.1617     0.9646     0.9646    -0.0000
 26 H      0.8203     1.0000     0.1797     0.9795     0.9795    -0.0000
 27 Na    10.1542    11.0000     0.8458     0.3174     0.3174    -0.0000

  Mayer bond orders larger than 0.100000
B(  0-O ,  1-C ) :   2.0508 B(  0-O ,  2-C ) :  -0.1132 B(  0-O , 19-C ) :  -0.1216 
B(  1-C ,  2-C ) :   0.9976 B(  1-C , 19-C ) :   0.9852 B(  2-C ,  3-C ) :   1.3726 
B(  2-C ,  7-C ) :   1.3864 B(  3-C ,  4-C ) :   1.3972 B(  3-C , 24-H ) :   0.9652 
B(  4-C ,  5-C ) :   1.3598 B(  4-C , 25-H ) :   0.9838 B(  5-C ,  6-C ) :   1.3986 
B(  5-C , 23-H ) :   0.9830 B(  6-C ,  7-C ) :   1.3758 B(  6-C , 22-H ) :   0.9645 
B(  7-C ,  8-C ) :   1.0026 B(  7-C ,  9-O ) :  -0.1127 B(  8-C ,  9-O ) :   2.0508 
B(  8-C , 10-C ) :   0.9764 B(  9-O , 10-C ) :  -0.1253 B( 10-C , 11-C ) :   1.3981 
B( 10-C , 19-C ) :   1.3935 B( 11-C , 12-C ) :   1.3704 B( 11-C , 21-H ) :   0.9361 
B( 12-C , 13-S ) :   0.8867 B( 12-C , 17-C ) :   1.3346 B( 13-S , 14-O ) :   1.6684 
B( 13-S , 15-O ) :   1.7069 B( 13-S , 16-O ) :   1.6742 B( 17-C , 18-C ) :   1.3979 
B( 17-C , 26-H ) :   0.9580 B( 18-C , 19-C ) :   1.3671 B( 18-C , 20-H ) :   0.9685 


-------
TIMINGS
-------

Total SCF time: 0 days 0 hours 9 min 47 sec 

Total time                  ....     587.598 sec
Sum of individual times     ....     585.943 sec  ( 99.7%)

Fock matrix formation       ....     581.428 sec  ( 98.9%)
  XC integration            ....       4.268 sec  (  0.7% of F)
    Basis function eval.    ....       0.761 sec  ( 17.8% of XC)
    Density eval.           ....       1.223 sec  ( 28.7% of XC)
    XC-Functional eval.     ....       0.235 sec  (  5.5% of XC)
    XC-Potential eval.      ....       1.566 sec  ( 36.7% of XC)
Diagonalization             ....       0.348 sec  (  0.1%)
Density matrix formation    ....       0.052 sec  (  0.0%)
Population analysis         ....       0.258 sec  (  0.0%)
Initial guess               ....       0.376 sec  (  0.1%)
Orbital Transformation      ....       0.000 sec  (  0.0%)
Orbital Orthonormalization  ....       0.328 sec  (  0.1%)
DIIS solution               ....       0.103 sec  (  0.0%)
SOSCF solution              ....       1.479 sec  (  0.3%)
Grid generation             ....       1.899 sec  (  0.3%)


-------------------------------------------------------------------------------
                          DFT DISPERSION CORRECTION                            
                                                                               
                              DFTD3 V3.1  Rev 1                                
                              USING zero damping                               
-------------------------------------------------------------------------------
The omegaB97X-D3 functional is recognized. Fit by Chai et al.
Active option DFTDOPT                   ...         3   

molecular C6(AA) [au] = 14950.729579 


            DFT-D V3
 parameters
 s6 scaling factor         :     1.0000 
 rs6 scaling factor        :     1.2810 
 s8 scaling factor         :     1.0000 
 rs8 scaling factor        :     1.0940 
 Damping factor alpha6     :    14.0000 
 Damping factor alpha8     :    16.0000 
 ad hoc parameters k1-k3   :    16.0000     1.3333    -4.0000 

 Edisp/kcal,au: -8.024372661923  -0.012787650446 
 E6   /kcal   :  -3.435437406 
 E8   /kcal   :  -4.588935256 
 % E8         :  57.187464361 

-------------------------   ----------------
Dispersion correction           -0.012787650
-------------------------   ----------------


-------------------------   --------------------
FINAL SINGLE POINT ENERGY     -1474.531642743471
-------------------------   --------------------

                                *** OPTIMIZATION RUN DONE ***

                            ***************************************
                            *     ORCA property calculations      *
                            ***************************************

                                    ---------------------
                                    Active property flags
                                    ---------------------
   (+) Dipole Moment


------------------------------------------------------------------------------
                       ORCA ELECTRIC PROPERTIES CALCULATION
------------------------------------------------------------------------------

Dipole Moment Calculation                       ... on
Quadrupole Moment Calculation                   ... off
Polarizability Calculation                      ... off
GBWName                                         ... AQ.gbw
Electron density file                           ... AQ.scfp
The origin for moment calculation is the CENTER OF MASS  = ( 9.229782, -4.177844  0.217552)

-------------
DIPOLE MOMENT
-------------
                                X             Y             Z
Electronic contribution:      8.93307     -24.51929       0.56293
Nuclear contribution   :     -7.79483      22.15494      -0.18079
                        -----------------------------------------
Total Dipole Moment    :      1.13824      -2.36435       0.38215
                        -----------------------------------------
Magnitude (a.u.)       :      2.65175
Magnitude (Debye)      :      6.74021



--------------------
Rotational spectrum 
--------------------
 
Rotational constants in cm-1:     0.028029     0.004319     0.003824 
Rotational constants in MHz :   840.286032   129.476729   114.628346 

 Dipole components along the rotational axes: 
x,y,z [a.u.] :     2.589280     0.412406     0.396642 
x,y,z [Debye]:     6.581427     1.048254     1.008183 

 
--------------------------------------------------------------------------
[[12587,1],0]: A high-performance Open MPI point-to-point messaging module
was unable to find any relevant network interfaces:

Module: OpenFabrics (openib)
  Host: compute-0-13

Another transport will be used instead, although this may result in
lower performance.

NOTE: You can disable this warning by setting the MCA parameter
btl_base_warn_component_unused to 0.
--------------------------------------------------------------------------
[compute-0-13.local:52226] 7 more processes have sent help message help-mpi-btl-base.txt / btl:no-nics
[compute-0-13.local:52226] Set MCA parameter "orte_base_help_aggregate" to 0 to see all help / error messages

Timings for individual modules:

Sum of individual times         ...    52299.438 sec (= 871.657 min)
GTO integral calculation        ...       50.727 sec (=   0.845 min)   0.1 %
SCF iterations                  ...    30150.165 sec (= 502.503 min)  57.6 %
SCF Gradient evaluation         ...    22090.301 sec (= 368.172 min)  42.2 %
Geometry relaxation             ...        8.245 sec (=   0.137 min)   0.0 %
                             ****ORCA TERMINATED NORMALLY****
TOTAL RUN TIME: 0 days 14 hours 31 minutes 49 seconds 185 msec
