
                                 *****************
                                 * O   R   C   A *
                                 *****************

           --- An Ab Initio, DFT and Semiempirical electronic structure package ---

                  #######################################################
                  #                        -***-                        #
                  #          Department of theory and spectroscopy      #
                  #               Directorship: Frank Neese             #
                  #        Max Planck Institute fuer Kohlenforschung    #
                  #                Kaiser Wilhelm Platz 1               #
                  #                 D-45470 Muelheim/Ruhr               #
                  #                      Germany                        #
                  #                                                     #
                  #                  All rights reserved                #
                  #                        -***-                        #
                  #######################################################


                         Program Version 4.2.1 -  RELEASE  -


 With contributions from (in alphabetic order):
   Daniel Aravena         : Magnetic Suceptibility
   Michael Atanasov       : Ab Initio Ligand Field Theory (pilot matlab implementation)
   Alexander A. Auer      : GIAO ZORA, VPT2
   Ute Becker             : Parallelization
   Giovanni Bistoni       : ED, misc. LED, open-shell LED, HFLD
   Martin Brehm           : Molecular dynamics
   Dmytro Bykov           : SCF Hessian
   Vijay G. Chilkuri      : MRCI spin determinant printing, contributions to CSF-ICE
   Dipayan Datta          : RHF DLPNO-CCSD density
   Achintya Kumar Dutta   : EOM-CC, STEOM-CC
   Dmitry Ganyushin       : Spin-Orbit,Spin-Spin,Magnetic field MRCI
   Miquel Garcia          : C-PCM Hessian, Gaussian charge scheme
   Yang Guo               : DLPNO-NEVPT2, CIM, IAO-localization
   Andreas Hansen         : Spin unrestricted coupled pair/coupled cluster methods
   Benjamin Helmich-Paris : CASSCF linear response (MC-RPA)
   Lee Huntington         : MR-EOM, pCC
   Robert Izsak           : Overlap fitted RIJCOSX, COSX-SCS-MP3, EOM
   Christian Kollmar      : KDIIS, OOCD, Brueckner-CCSD(T), CCSD density
   Simone Kossmann        : Meta GGA functionals, TD-DFT gradient, OOMP2, MP2 Hessian
   Martin Krupicka        : AUTO-CI
   Lucas Lang             : DCDCAS
   Dagmar Lenk            : GEPOL surface, SMD
   Dimitrios Liakos       : Extrapolation schemes; Compound Job, initial MDCI parallelization
   Dimitrios Manganas     : Further ROCIS development; embedding schemes
   Dimitrios Pantazis     : SARC Basis sets
   Taras Petrenko         : DFT Hessian,TD-DFT gradient, ASA, ECA, R-Raman, ABS, FL, XAS/XES, NRVS
   Peter Pinski           : DLPNO-MP2, DLPNO-MP2 Gradient
   Christoph Reimann      : Effective Core Potentials
   Marius Retegan         : Local ZFS, SOC
   Christoph Riplinger    : Optimizer, TS searches, QM/MM, DLPNO-CCSD(T), (RO)-DLPNO pert. Triples
   Tobias Risthaus        : Range-separated hybrids, TD-DFT gradient, RPA, STAB
   Michael Roemelt        : Original ROCIS implementation
   Masaaki Saitow         : Open-shell DLPNO-CCSD energy and density
   Barbara Sandhoefer     : DKH picture change effects
   Avijit Sen             : IP-ROCIS
   Kantharuban Sivalingam : CASSCF convergence, NEVPT2, FIC-MRCI
   Bernardo de Souza      : ESD, SOC TD-DFT
   Georgi Stoychev        : AutoAux, RI-MP2 NMR
   Willem Van den Heuvel  : Paramagnetic NMR
   Boris Wezisla          : Elementary symmetry handling
   Frank Wennmohs         : Technical directorship


 We gratefully acknowledge several colleagues who have allowed us to
 interface, adapt or use parts of their codes:
   Stefan Grimme, W. Hujo, H. Kruse,             : VdW corrections, initial TS optimization,
                  C. Bannwarth                     DFT functionals, gCP, sTDA/sTD-DF
   Ed Valeev, F. Pavosevic, A. Kumar             : LibInt (2-el integral package), F12 methods
   Garnet Chan, S. Sharma, J. Yang, R. Olivares  : DMRG
   Ulf Ekstrom                                   : XCFun DFT Library
   Mihaly Kallay                                 : mrcc  (arbitrary order and MRCC methods)
   Andreas Klamt, Michael Diedenhofen            : otool_cosmo (COSMO solvation model)
   Jiri Pittner, Ondrej Demel                    : Mk-CCSD
   Frank Weinhold                                : gennbo (NPA and NBO analysis)
   Christopher J. Cramer and Donald G. Truhlar   : smd solvation model
   Lars Goerigk                                  : TD-DFT with DH, B97 family of functionals
   V. Asgeirsson, H. Jonsson                     : NEB implementation
   FAccTs GmbH                                   : IRC, NEB, NEB-TS, Multilevel, MM, QM/MM, CI optimization
   S Lehtola, MJT Oliveira, MAL Marques          : LibXC Library


 Your calculation uses the libint2 library for the computation of 2-el integrals
 For citations please refer to: http://libint.valeyev.net

 Your ORCA version has been built with support for libXC version: 4.2.3
 For citations please refer to: https://tddft.org/programs/libxc/

 This ORCA versions uses:
   CBLAS   interface :  Fast vector & matrix operations
   LAPACKE interface :  Fast linear algebra routines
   SCALAPACK package :  Parallel linear algebra routines


----- Orbital basis set information -----
Your calculation utilizes the basis: def2-SVP
   F. Weigend and R. Ahlrichs, Phys. Chem. Chem. Phys. 7, 3297 (2005).

----- AuxJ basis set information -----
Your calculation utilizes the auxiliary basis: def2/J
   F. Weigend, Phys. Chem. Chem. Phys. 8, 1057 (2006).

================================================================================
                                        WARNINGS
                       Please study these warnings very carefully!
================================================================================


INFO   : the flag for use of LIBINT has been found!

================================================================================
                                       INPUT FILE
================================================================================
NAME = I2_atom53.inp
|  1> # input to generate an atomic fitting density for I 
|  2> # this file is use internally by ORCA
|  3> #
|  4> # atomic ground state (S=2): 1s2 2s2 2p6 3s2 3p6 4s2 3d10 4p6 5s2 4d10 5p5 
|  5> #
|  6> ! RHF AllowRHF def2-SVP def2/J  NoMulliken NoLoewdin NoMayer NoPrintMOs 
|  7> 
|  8> %output print[p_atomdensfit] 2 end
|  9> 
| 10> %scf
| 11>   guess hcore
| 12>   maxiter 1000
| 13>   maxdisk 500000
| 14>   SCFMode Conventional
| 15>   lshift 1.000000
| 16>   hftyp rohf
| 17>   rohf_case sahf
| 18>   rohf_numop   2
| 19>   rohf_norb[1] 3
| 20>   rohf_nel[1]  5
| 21> end
| 22> 
| 23> %basis
| 24>   NewECP 53
| 25>     N_core 28
| 26>     lmax f
| 27>     s 7
| 28>       1      40.0158350000     49.9942930000  2
| 29>       2      17.4297470000    281.0253170000  2
| 30>       3       9.0054840000     61.5733260000  2
| 31>       4      19.4586090000     21.8420400000  2
| 32>       5      19.3492600000     28.4681910000  2
| 33>       6       4.8237670000      0.2437130000  2
| 34>       7       4.8843150000      0.3208040000  2
| 35>     p 8
| 36>       1      15.3554660000     67.4428410000  2
| 37>       2      14.9718330000    134.8811370000  2
| 38>       3       8.9601640000     14.6750510000  2
| 39>       4       8.2590960000     29.3756660000  2
| 40>       5      19.4586090000     21.8420400000  2
| 41>       6      19.3492600000     28.4681910000  2
| 42>       7       4.8237670000      0.2437130000  2
| 43>       8       4.8843150000      0.3208040000  2
| 44>     d 10
| 45>       1      15.0689080000     35.4395290000  2
| 46>       2      14.5553220000     53.1760570000  2
| 47>       3       6.7186470000      9.0671950000  2
| 48>       4       6.4563930000     13.2069370000  2
| 49>       5       1.1917790000      0.0893350000  2
| 50>       6       1.2911570000      0.0523800000  2
| 51>       7      19.4586090000     21.8420400000  2
| 52>       8      19.3492600000     28.4681910000  2
| 53>       9       4.8237670000      0.2437130000  2
| 54>      10       4.8843150000      0.3208040000  2
| 55>     f 4
| 56>       1      19.4586090000    -21.8420400000  2
| 57>       2      19.3492600000    -28.4681910000  2
| 58>       3       4.8237670000     -0.2437130000  2
| 59>       4       4.8843150000     -0.3208040000  2
| 60>   end
| 61>   NewGTO 53
| 62>     s 5 
| 63>      1    5899.5791533000      0.0002610056
| 64>      2     898.5423876500      0.0016697400
| 65>      3     200.3723791200      0.0046223298
| 66>      4      31.4180538400     -0.0425342684
| 67>      5      15.6459878380      1.0368318419
| 68>     s 2 
| 69>      1      11.8157418570      0.6510798928
| 70>      2       6.4614458287      0.3642365936
| 71>     s 1 
| 72>      1       2.3838067579      1.0000000000
| 73>     s 1 
| 74>      1       1.1712089662      1.0000000000
| 75>     s 1 
| 76>      1       0.3211587576      1.0000000000
| 77>     s 1 
| 78>      1       0.1238791936      1.0000000000
| 79>     p 3 
| 80>      1     197.3003054700      0.0031927743
| 81>      2      20.0614113490      0.2856760152
| 82>      3       9.7631460485     -1.2328204991
| 83>     p 4 
| 84>      1      12.9843169040     -0.0386816591
| 85>      2       3.6199503008      0.3065970959
| 86>      3       2.0232273090      0.5169312450
| 87>      4       1.0367490559      0.2505722415
| 88>     p 1 
| 89>      1       0.4593781600      1.0000000000
| 90>     p 1 
| 91>      1       0.1911653293      1.0000000000
| 92>     p 1 
| 93>      1       0.0748788130      1.0000000000
| 94>   end
| 95>   NewAuxGTO 53
| 96>     S 1
| 97>      1 1310.72 1.0
| 98>     S 1
| 99>      1  655.36 1.0
|100>     S 1
|101>      1  327.68 1.0
|102>     S 1
|103>      1  163.84 1.0
|104>     S 1
|105>      1   81.82 1.0
|106>     S 1
|107>      1   40.96 1.0
|108>     S 1
|109>      1   20.48 1.0
|110>     S 1
|111>      1   10.24 1.0
|112>     S 1
|113>      1    5.12 1.0
|114>     S 1
|115>      1    2.56 1.0
|116>     S 1
|117>      1    1.28 1.0
|118>     S 1
|119>      1    0.64 1.0
|120>     S 1
|121>      1    0.32 1.0
|122>     S 1
|123>      1    0.16 1.0
|124>     S 1
|125>      1    0.08 1.0
|126>     S 1
|127>      1    0.04 1.0
|128>     S 1
|129>      1    0.02 1.0
|130>     S 1
|131>      1    0.01 1.0
|132>   end
|133> end
|134> 
|135> * xyz 0 2
|136> 53  0.0 0.0 0.0
|137> *
|138> 
|139> 
|140>                          ****END OF INPUT****
================================================================================

                       ****************************
                       * Single Point Calculation *
                       ****************************

---------------------------------
CARTESIAN COORDINATES (ANGSTROEM)
---------------------------------
  I      0.000000    0.000000    0.000000

----------------------------
CARTESIAN COORDINATES (A.U.)
----------------------------
  NO LB      ZA    FRAG     MASS         X           Y           Z
   0 I    25.0000*   0   126.900    0.000000    0.000000    0.000000
* core charge reduced due to ECP

--------------------------------
INTERNAL COORDINATES (ANGSTROEM)
--------------------------------
 I      0   0   0     0.000000000000     0.00000000     0.00000000

---------------------------
INTERNAL COORDINATES (A.U.)
---------------------------
 I      0   0   0     0.000000000000     0.00000000     0.00000000

---------------------
BASIS SET INFORMATION
---------------------
There are 1 groups of distinct atoms

 Group   1 Type I   : 11s10p contracted to 6s5p pattern {521111/34111}

Atom   0I    basis set group =>   1
---------------------------------
AUXILIARY/J BASIS SET INFORMATION
---------------------------------
There are 1 groups of distinct atoms

 Group   1 Type I   : 18s contracted to 18s pattern {111111111111111111}

Atom   0I    basis set group =>   1
-------------------------
ECP PARAMETER INFORMATION
-------------------------

 Group 1, Type I  ECP (replacing 28 core electrons, lmax=3)

Atom   0I    ECP group =>   1

------------------------------------------------------------------------------
                           ORCA GTO INTEGRAL CALCULATION
------------------------------------------------------------------------------

                         BASIS SET STATISTICS AND STARTUP INFO

 # of primitive gaussian shells          ...   21
 # of primitive gaussian functions       ...   41
 # of contracted shells                  ...   11
 # of contracted basis functions         ...   21
 Highest angular momentum                ...    1
 Maximum contraction depth               ...    5
 Integral package used                   ... LIBINT
 Integral threshhold            Thresh   ...  1.000e-10
 Primitive cut-off              TCut     ...  1.000e-11
 Storage cut-off                TCutStore... -1.000e+00
 Buffer length                           ... 1048576 integrals/buffer
 Generate file with integrals 4 distinct ...false


------------------------------ INTEGRAL EVALUATION ----------------------------


 * One electron integrals 

   ECP integrals                         ... done
 Pre-screening matrix                    ... done
 Shell pair data                         ... done (   0.000 sec)
 Statistics run                          ... done
 Maximum amount of storage needed        ...     0 MB
 Maximum amount of storage dedicated     ... 500000 MB
 Beginning two electron integral evaluation:
 Starting repulsion integrals
  <ss|ss>  ...          231 b.         0 skpd (  0.0%)     0.000 s. (  0.001 ms/b)
  <ss|sp>  ...          630 b.         0 skpd (  0.0%)     0.001 s. (  0.001 ms/b)
  <ss|pp>  ...          315 b.         0 skpd (  0.0%)     0.001 s. (  0.003 ms/b)
  <sp|sp>  ...          465 b.         0 skpd (  0.0%)     0.001 s. (  0.003 ms/b)
  <sp|pp>  ...          450 b.         0 skpd (  0.0%)     0.003 s. (  0.006 ms/b)
  <pp|pp>  ...          120 b.         0 skpd (  0.0%)     0.002 s. (  0.015 ms/b)


                                      INTEGRAL STATISTICS

Integral type statistics:
 Number of integrals retained            ...      26796 
 One   Center Integrals retained         ...      26796 (100.0%)
 Two   Center Integrals retained         ...          0 (  0.0%)
 Three Center Integrals retained         ...          0 (  0.0%)
 Four  Center Integrals retained         ...          0 (  0.0%)

Storage statistics:
 Number of char integrals                ...          0 (  0.0%)
 Number of short int integrals           ...          0 (  0.0%)
 Number of double/float integrals        ...      26796 (100.0%)
 Amount of memory used                   ...          0 MB
 Amount of memory estimated              ...          0 MB ( 95.2%)

Prescreening statistics:
 Total number of shell quadruples        ...       2211 
 Number of skipped shell quadruples      ...          0 (  0.0%)
 # of negligible batches done            ...          0 (  0.0%)

Timings:
 Total evaluation time               ...     0.234 sec (   0.004 min)
 One electron matrix time            ...     0.016 sec (   0.000 min) =  6.7%
 Schwartz matrix evaluation time     ...     0.108 sec (   0.002 min) = 46.3%
 Statistics run                      ...     0.001 sec (   0.000 min) =  0.3%
 Repulsion integral time             ...     0.007 sec (   0.000 min) =  3.1%

-------------------------------------------------------------------------------
                                 ORCA SCF
-------------------------------------------------------------------------------

------------
SCF SETTINGS
------------
Hamiltonian:
 Ab initio Hamiltonian  Method          .... Hartree-Fock(GTOs)


General Settings:
 Integral files         IntName         .... I2_atom53
 Hartree-Fock type      HFTyp           .... ROHF
 Total Charge           Charge          ....    0
 Multiplicity           Mult            ....    2
 Number of Electrons    NEL             ....   25
 Basis Dimension        Dim             ....   21
 Nuclear Repulsion      ENuc            ....      0.0000000000 Eh

Convergence Acceleration:
 DIIS                   CNVDIIS         .... on
   Start iteration      DIISMaxIt       ....    12
   Startup error        DIISStart       ....  0.200000
   # of expansion vecs  DIISMaxEq       ....     5
   Bias factor          DIISBfac        ....   1.050
   Max. coefficient     DIISMaxC        ....  10.000
 Newton-Raphson         CNVNR           .... off
 SOSCF                  CNVSOSCF        .... off
 Level Shifting         CNVShift        .... on
   Level shift para.    LevelShift      ....    1.0000
   Turn off err/grad.   ShiftErr        ....    0.0010
 Zerner damping         CNVZerner       .... off
 Static damping         CNVDamp         .... on
   Fraction old density DampFac         ....    0.7000
   Max. Damping (<1)    DampMax         ....    0.9800
   Min. Damping (>=0)   DampMin         ....    0.0000
   Turn off err/grad.   DampErr         ....    0.1000
 Fernandez-Rico         CNVRico         .... off

SCF Procedure:
 Maximum # iterations   MaxIter         ....  1000
 SCF integral mode      SCFMode         .... Conventional
 Integral Threshold     Thresh          ....  1.000e-10 Eh
 Primitive CutOff       TCut            ....  1.000e-11 Eh
 Integral Buffer length BufferLength    .... 1048576
 Integral index format  IndFormat       ....     0
 Integral value format  ValFormat       ....     0
 Integral Storage       Thresh          ....  1.000e-10 Eh

Convergence Tolerance:
 Convergence Check Mode ConvCheckMode   .... Total+1el-Energy
 Convergence forced     ConvForced      .... 0
 Energy Change          TolE            ....  1.000e-06 Eh
 1-El. energy change                    ....  1.000e-03 Eh
 DIIS Error             TolErr          ....  1.000e-06


Diagonalization of the overlap matrix:
Smallest eigenvalue                        ... 5.755e-03
Time for diagonalization                   ...    0.030 sec
Threshold for overlap eigenvalues          ... 1.000e-08
Number of eigenvalues below threshold      ... 0
Time for construction of square roots      ...    0.000 sec
Total time needed                          ...    0.030 sec

--------------------
INITIAL GUESS: HCORE
--------------------
AVERAGE-CONFIGURATION (SAHF) CASE FOUND

-------------------
FINAL ROHF SETTINGS
-------------------
Number of operators             ... 2
  operator   0:  10 orbitals  20 electrons n(mue)= 2.000
  operator   1:   3 orbitals   5 electrons n(mue)= 1.667
Vector coupling coefficients a and b (Zerner convention):
   1.000    1.000           1.000    1.000 
   1.000    0.960           1.000    0.960 

                      -----------------
                      INTIAL GUESS DONE 
                      -----------------

 InCore treatment chosen:
   Memory dedicated               ...    1024 MB
   Memory needed                  ...      0 MB
   Number of tiny    integrals    ...       0
   Number of small   integrals    ...       0
   Number of regular integrals    ...   26796

--------------
SCF ITERATIONS
--------------
ITER       Energy         Delta-E        Max-DP      RMS-DP      [F,P]     Damp
  0   -252.3799168940   0.000000000000 3.56329572  0.29314035  1.6984664 0.7000
  1   -253.3949411031  -1.015024209130 3.40183255  0.28057147  0.2190383 0.7000
                            ****Activating DIIS****
  2   -253.7710760895  -0.376134986363 3.16189073  0.26181082  0.1980712 0.7000
  3   -254.1005820741  -0.329505984631 2.90237662  0.24109923  0.1658911 0.7000
  4   -254.3703202155  -0.269738141392 3.01682238  0.25191814  0.1227977 0.7000
  5   -254.5985752156  -0.228255000110 8.13499715  0.67888693  0.0631425 0.0000
  6   -254.9665953829  -0.368020167306 0.41347779  0.03786774  0.0369049 0.0000
  7   -254.9732683099  -0.006672927036 0.74844801  0.07203355  0.0301462 0.0000
  8   -254.9841172796  -0.010848969653 0.17150269  0.01715819  0.0166193 0.0000
  9   -254.9860747681  -0.001957488556 0.28311334  0.02872534  0.0132346 0.0000
 10   -254.9881442313  -0.002069463190 0.31070726  0.03304703  0.0116263 0.0000
 11   -254.9894429070  -0.001298675662 0.12144677  0.01350254  0.0101428 0.0000
 12   -254.9896285067  -0.000185599747 0.03861724  0.00441817  0.0071851 0.0000
 13   -254.9897093353  -0.000080828546 0.03777779  0.00465352  0.0041817 0.0000
 14   -254.9898540834  -0.000144748109 0.04887259  0.00561960  0.0026010 0.0000
 15   -254.9899056289  -0.000051545490 0.01101589  0.00125965  0.0012910 0.0000
 16   -254.9899100725  -0.000004443643 0.03462643  0.00257128  0.0010005 0.0000
 17   -254.9899240779  -0.000014005395 0.02773652  0.00195169  0.0020968 0.0000
 18   -254.9899443182  -0.000020240300 0.03868377  0.00273970  0.0035202 0.0000
 19   -254.9899196809   0.000024637313 0.01717393  0.00163231  0.0015353 0.0000
 20   -254.9899171593   0.000002521631 0.01494292  0.00170985  0.0006569 0.0000
                 **** Energy Check signals convergence ****

               *****************************************************
               *                     SUCCESS                       *
               *           SCF CONVERGED AFTER  21 CYCLES          *
               *****************************************************


----------------
TOTAL SCF ENERGY
----------------

Total Energy       :         -254.98991755 Eh           -6938.62841 eV

Components:
Nuclear Repulsion  :            0.00000000 Eh               0.00000 eV
Electronic Energy  :         -254.98991755 Eh           -6938.62841 eV
One Electron Energy:         -404.85956049 Eh          -11016.78872 eV
Two Electron Energy:          149.86964294 Eh            4078.16031 eV

Virial components:
Potential Energy   :         -331.11529077 Eh           -9010.10513 eV
Kinetic Energy     :           76.12537322 Eh            2071.47672 eV
Virial Ratio       :            4.34960483


---------------
SCF CONVERGENCE
---------------

  Last Energy change         ...   -3.9091e-07  Tolerance :   1.0000e-06
  Last MAX-Density change    ...    5.1475e-03  Tolerance :   1.0000e-05
  Last RMS-Density change    ...    5.5481e-04  Tolerance :   1.0000e-06
  Last DIIS Error            ...    1.4694e-04  Tolerance :   1.0000e-06

             **** THE GBW FILE WAS UPDATED (I2_atom53.gbw) ****
             **** DENSITY FILE WAS UPDATED (I2_atom53.scfp) ****
             **** ENERGY FILE WAS UPDATED (I2_atom53.en.tmp) ****
             **** THE GBW FILE WAS UPDATED (I2_atom53.gbw) ****
             **** DENSITY FILE WAS UPDATED (I2_atom53.scfp) ****
----------------
ORBITAL ENERGIES
----------------

  NO   OCC          E(Eh)            E(eV) 
   0   2.0000     -12.520822      -340.7089 
   1   2.0000      -9.991559      -271.8841 
   2   2.0000      -9.991559      -271.8841 
   3   2.0000      -9.989585      -271.8304 
   4   2.0000      -3.231807       -87.9419 
   5   2.0000      -2.151414       -58.5429 
   6   2.0000      -2.151414       -58.5429 
   7   2.0000      -2.146322       -58.4044 
   8   2.0000      -0.580455       -15.7950 
   9   2.0000      -0.267188        -7.2705 
  10   1.6667      -0.279884        -7.6160 
  11   1.6667      -0.279884        -7.6160 
  12   1.6667       1.114200        30.3189 
  13   0.0000       0.368415        10.0251 
  14   0.0000       0.368415        10.0251 
  15   0.0000       0.374735        10.1971 
  16   0.0000      29.265485       796.3543 
  17   0.0000      29.265485       796.3543 
  18   0.0000      29.266325       796.3772 
  19   0.0000      37.415928      1018.1392 
  20   0.0000     112.402287      3058.6217 
CleanUpVectors: The p-vectors have cracked symmetry
CleanUpVectors: The p-vectors have cracked symmetry
CleanUpVectors: The p-vectors have cracked symmetry
CleanUpVectors: The p-vectors have cracked symmetry
CleanUpVectors: The p-vectors have cracked symmetry
CleanUpVectors: The p-vectors have cracked symmetry
CleanUpVectors: The p-vectors have cracked symmetry
CleanUpVectors: The p-vectors have cracked symmetry
CleanUpVectors: The p-vectors have cracked symmetry
CleanUpVectors: The p-vectors have cracked symmetry
CleanUpVectors: The p-vectors have cracked symmetry
CleanUpVectors: The p-vectors have cracked symmetry
CleanUpVectors: The p-vectors have cracked symmetry
CleanUpVectors: The p-vectors have cracked symmetry
CleanUpVectors: The p-vectors have cracked symmetry
--------------------------
ATOM BASIS FOR ELEMENT I 
--------------------------
 NewGTO I 
 S 11
    1       5899.579153300000        -0.000169504800
    2        898.542387650000        -0.001084378822
    3        200.372379120000        -0.003001878462
    4         31.418053840000         0.027623019068
    5         15.645987838000        -0.673349438393
    6         11.815741857000         0.870975903476
    7          6.461445828700         0.487254021662
    8          2.383806757900        -1.238367697074
    9          1.171208966200        -0.253464094405
   10          0.321158757600        -0.007076170798
   11          0.123879193600         0.002382220644
 P 21
    1        197.300305470000        -0.000008918530
    2         20.061411349000        -0.000797992559
    3          9.763146048500         0.003443696819
    4        197.300305470000         0.000014241391
    5         20.061411349000         0.001274259810
    6          9.763146048500        -0.005499004228
    7        197.300305470000        -0.000562434445
    8         20.061411349000        -0.050324268482
    9          9.763146048500         0.217171853727
   10         12.984316904000         0.000715308079
   11          3.619950300800        -0.005669647704
   12          2.023227309000        -0.009559183977
   13          1.036749055900        -0.004633626191
   14         12.984316904000        -0.001142226612
   15          3.619950300800         0.009053473151
   16          2.023227309000         0.015264407949
   17          1.036749055900         0.007399121163
   18         12.984316904000         0.045109889072
   19          3.619950300800        -0.357548287942
   20          2.023227309000        -0.602836374202
   21          1.036749055900        -0.292213061220
 S 11
    1       5899.579153300000        -0.000137609445
    2        898.542387650000        -0.000880333582
    3        200.372379120000        -0.002437021422
    4         31.418053840000         0.022425254741
    5         15.645987838000        -0.546646716928
    6         11.815741857000         0.741784978461
    7          6.461445828700         0.414980153321
    8          2.383806757900        -2.039197418254
    9          1.171208966200         0.912565203251
   10          0.321158757600         1.086013425147
   11          0.123879193600        -0.188382365034
 P 21
    1        197.300305470000        -0.000003467893
    2         20.061411349000        -0.000310292514
    3          9.763146048500         0.001339051765
    4        197.300305470000         0.000005537653
    5         20.061411349000         0.000495485919
    6          9.763146048500        -0.002138244602
    7        197.300305470000        -0.000218697204
    8         20.061411349000        -0.019568105983
    9          9.763146048500         0.084445178809
   10         12.984316904000         0.000464165574
   11          3.619950300800        -0.003679051531
   12          2.023227309000        -0.006202983375
   13          1.036749055900        -0.003006774040
   14         12.984316904000        -0.000741195793
   15          3.619950300800         0.005874837916
   16          2.023227309000         0.009905140390
   17          1.036749055900         0.004801321750
   18         12.984316904000         0.029271866831
   19          3.619950300800        -0.232013558122
   20          2.023227309000        -0.391181322526
   21          1.036749055900        -0.189617442873
 S 11
    1       5899.579153300000         0.001244225510
    2        898.542387650000         0.007959726165
    3        200.372379120000         0.022034855397
    4         31.418053840000        -0.202762782873
    5         15.645987838000         4.942624324895
    6         11.815741857000        -4.567307218093
    7          6.461445828700        -2.555109505669
    8          2.383806757900         4.181680912288
    9          1.171208966200        -2.750937537195
   10          0.321158757600         0.869613257987
   11          0.123879193600        -0.314163225610
 S 11
    1       5899.579153300000         0.001022923430
    2        898.542387650000         0.006543982842
    3        200.372379120000         0.018115662859
    4         31.418053840000        -0.166698721126
    5         15.645987838000         4.063512752625
    6         11.815741857000        -2.460188832514
    7          6.461445828700        -1.376314657966
    8          2.383806757900         1.459109760322
    9          1.171208966200        -0.864336625030
   10          0.321158757600         0.256729919616
   11          0.123879193600        -0.091920373884
 P 21
    1        898.542387650000         0.000000000021
    2        200.372379120000         0.000000000121
    3         31.418053840000        -0.000000002807
    4         15.645987838000         0.000000096958
    5         11.815741857000        -0.000000154731
    6          6.461445828700        -0.000000117056
    7          2.383806757900         0.000000985680
    8          1.171208966200        -0.000000658688
    9          0.321158757600        -0.000001441455
   10        197.300305470000         0.000072914103
   11         20.061411349000         0.006524047270
   12          9.763146048500        -0.028154198405
   13        197.300305470000        -0.000206189293
   14         20.061411349000        -0.018448950718
   15          9.763146048500         0.079615520455
   16        197.300305470000        -0.000006377142
   17         20.061411349000        -0.000570599849
   18          9.763146048500         0.002462394998
   19         12.984316904000        -0.009759301440
   20          3.619950300800         0.077353804082
   21          2.023227309000         0.130420668638
 P 21
    1        197.300305470000        -0.000001249528
    2         20.061411349000        -0.000111802493
    3          9.763146048500         0.000482478043
    4        197.300305470000         0.000001995287
    5         20.061411349000         0.000178529930
    6          9.763146048500        -0.000770436947
    7        197.300305470000        -0.000078799603
    8         20.061411349000        -0.007050657048
    9          9.763146048500         0.030426756460
   10         12.984316904000         0.000192819920
   11          3.619950300800        -0.001528321921
   12          2.023227309000        -0.002576793336
   13          1.036749055900        -0.001249049827
   14         12.984316904000        -0.000307901246
   15          3.619950300800         0.002440475152
   16          2.023227309000         0.004114709095
   17          1.036749055900         0.001994524206
   18         12.984316904000         0.012159899992
   19          3.619950300800        -0.096381337063
   20          2.023227309000        -0.162501619321
   21          1.036749055900        -0.078769459952
 P 21
    1        197.300305470000        -0.000001584036
    2         20.061411349000        -0.000141732917
    3          9.763146048500         0.000611641286
    4        197.300305470000         0.000002529443
    5         20.061411349000         0.000226323889
    6          9.763146048500        -0.000976689380
    7        197.300305470000        -0.000099894852
    8         20.061411349000        -0.008938171172
    9          9.763146048500         0.038572228884
   10         12.984316904000         0.000249473500
   11          3.619950300800        -0.001977367375
   12          2.023227309000        -0.003333896481
   13          1.036749055900        -0.001616040668
   14         12.984316904000        -0.000398367677
   15          3.619950300800         0.003157526739
   16          2.023227309000         0.005323678046
   17          1.036749055900         0.002580548098
   18         12.984316904000         0.015732667463
   19          3.619950300800        -0.124699670775
   20          2.023227309000        -0.210247118863
   21          1.036749055900        -0.101913150641
 P 21
    1       5899.579153300000        -0.000000000002
    2        898.542387650000        -0.000000000025
    3        200.372379120000        -0.000000000146
    4         31.418053840000         0.000000003383
    5         15.645987838000        -0.000000116865
    6         11.815741857000         0.000000123944
    7          6.461445828700         0.000000093765
    8          2.383806757900        -0.000000245133
    9          1.171208966200         0.000000232203
   10        197.300305470000         0.001352484739
   11         20.061411349000         0.121014645702
   12          9.763146048500        -0.522232627083
   13        197.300305470000        -0.003824608085
   14         20.061411349000        -0.342209844750
   15          9.763146048500         1.476789401820
   16        197.300305470000        -0.000118283607
   17         20.061411349000        -0.010583519636
   18          9.763146048500         0.045672647565
   19         12.984316904000        -0.010882900619
   20          3.619950300800         0.086259633176
   21          2.023227309000         0.145436144593
 end
  // -----------------------------------------------
  // The basis set
  // -----------------------------------------------
  BAS[ATNO] = new BFNGauss[NSH];
  // Basis function   1 L = s
  InitBFNGauss(BAS[ATNO][  0]);
  BAS[ATNO][  0].l  = 0;
  BAS[ATNO][  0].ng = 11;
  BAS[ATNO][  0].a[  0] =      5899.579153300000;     BAS[ATNO][  0].d[  0] =         0.000169504800;
  BAS[ATNO][  0].a[  1] =       898.542387650000;     BAS[ATNO][  0].d[  1] =         0.001084378822;
  BAS[ATNO][  0].a[  2] =       200.372379120000;     BAS[ATNO][  0].d[  2] =         0.003001878462;
  BAS[ATNO][  0].a[  3] =        31.418053840000;     BAS[ATNO][  0].d[  3] =        -0.027623019068;
  BAS[ATNO][  0].a[  4] =        15.645987838000;     BAS[ATNO][  0].d[  4] =         0.673349438393;
  BAS[ATNO][  0].a[  5] =        11.815741857000;     BAS[ATNO][  0].d[  5] =        -0.870975903476;
  BAS[ATNO][  0].a[  6] =         6.461445828700;     BAS[ATNO][  0].d[  6] =        -0.487254021662;
  BAS[ATNO][  0].a[  7] =         2.383806757900;     BAS[ATNO][  0].d[  7] =         1.238367697074;
  BAS[ATNO][  0].a[  8] =         1.171208966200;     BAS[ATNO][  0].d[  8] =         0.253464094405;
  BAS[ATNO][  0].a[  9] =         0.321158757600;     BAS[ATNO][  0].d[  9] =         0.007076170798;
  BAS[ATNO][  0].a[ 10] =         0.123879193600;     BAS[ATNO][  0].d[ 10] =        -0.002382220644;

  // Basis function   2 L = p
  InitBFNGauss(BAS[ATNO][  1]);
  BAS[ATNO][  1].l  = 1;
  BAS[ATNO][  1].ng = 21;
  BAS[ATNO][  1].a[  0] =       197.300305470000;     BAS[ATNO][  1].d[  0] =         0.000008918530;
  BAS[ATNO][  1].a[  1] =        20.061411349000;     BAS[ATNO][  1].d[  1] =         0.000797992559;
  BAS[ATNO][  1].a[  2] =         9.763146048500;     BAS[ATNO][  1].d[  2] =        -0.003443696819;
  BAS[ATNO][  1].a[  3] =       197.300305470000;     BAS[ATNO][  1].d[  3] =        -0.000014241391;
  BAS[ATNO][  1].a[  4] =        20.061411349000;     BAS[ATNO][  1].d[  4] =        -0.001274259810;
  BAS[ATNO][  1].a[  5] =         9.763146048500;     BAS[ATNO][  1].d[  5] =         0.005499004228;
  BAS[ATNO][  1].a[  6] =       197.300305470000;     BAS[ATNO][  1].d[  6] =         0.000562434445;
  BAS[ATNO][  1].a[  7] =        20.061411349000;     BAS[ATNO][  1].d[  7] =         0.050324268482;
  BAS[ATNO][  1].a[  8] =         9.763146048500;     BAS[ATNO][  1].d[  8] =        -0.217171853727;
  BAS[ATNO][  1].a[  9] =        12.984316904000;     BAS[ATNO][  1].d[  9] =        -0.000715308079;
  BAS[ATNO][  1].a[ 10] =         3.619950300800;     BAS[ATNO][  1].d[ 10] =         0.005669647704;
  BAS[ATNO][  1].a[ 11] =         2.023227309000;     BAS[ATNO][  1].d[ 11] =         0.009559183977;
  BAS[ATNO][  1].a[ 12] =         1.036749055900;     BAS[ATNO][  1].d[ 12] =         0.004633626191;
  BAS[ATNO][  1].a[ 13] =        12.984316904000;     BAS[ATNO][  1].d[ 13] =         0.001142226612;
  BAS[ATNO][  1].a[ 14] =         3.619950300800;     BAS[ATNO][  1].d[ 14] =        -0.009053473151;
  BAS[ATNO][  1].a[ 15] =         2.023227309000;     BAS[ATNO][  1].d[ 15] =        -0.015264407949;
  BAS[ATNO][  1].a[ 16] =         1.036749055900;     BAS[ATNO][  1].d[ 16] =        -0.007399121163;
  BAS[ATNO][  1].a[ 17] =        12.984316904000;     BAS[ATNO][  1].d[ 17] =        -0.045109889072;
  BAS[ATNO][  1].a[ 18] =         3.619950300800;     BAS[ATNO][  1].d[ 18] =         0.357548287942;
  BAS[ATNO][  1].a[ 19] =         2.023227309000;     BAS[ATNO][  1].d[ 19] =         0.602836374202;
  BAS[ATNO][  1].a[ 20] =         1.036749055900;     BAS[ATNO][  1].d[ 20] =         0.292213061220;

  // Basis function   3 L = s
  InitBFNGauss(BAS[ATNO][  2]);
  BAS[ATNO][  2].l  = 0;
  BAS[ATNO][  2].ng = 11;
  BAS[ATNO][  2].a[  0] =      5899.579153300000;     BAS[ATNO][  2].d[  0] =         0.000137609445;
  BAS[ATNO][  2].a[  1] =       898.542387650000;     BAS[ATNO][  2].d[  1] =         0.000880333582;
  BAS[ATNO][  2].a[  2] =       200.372379120000;     BAS[ATNO][  2].d[  2] =         0.002437021422;
  BAS[ATNO][  2].a[  3] =        31.418053840000;     BAS[ATNO][  2].d[  3] =        -0.022425254741;
  BAS[ATNO][  2].a[  4] =        15.645987838000;     BAS[ATNO][  2].d[  4] =         0.546646716928;
  BAS[ATNO][  2].a[  5] =        11.815741857000;     BAS[ATNO][  2].d[  5] =        -0.741784978461;
  BAS[ATNO][  2].a[  6] =         6.461445828700;     BAS[ATNO][  2].d[  6] =        -0.414980153321;
  BAS[ATNO][  2].a[  7] =         2.383806757900;     BAS[ATNO][  2].d[  7] =         2.039197418254;
  BAS[ATNO][  2].a[  8] =         1.171208966200;     BAS[ATNO][  2].d[  8] =        -0.912565203251;
  BAS[ATNO][  2].a[  9] =         0.321158757600;     BAS[ATNO][  2].d[  9] =        -1.086013425147;
  BAS[ATNO][  2].a[ 10] =         0.123879193600;     BAS[ATNO][  2].d[ 10] =         0.188382365034;

  // Basis function   4 L = p
  InitBFNGauss(BAS[ATNO][  3]);
  BAS[ATNO][  3].l  = 1;
  BAS[ATNO][  3].ng = 21;
  BAS[ATNO][  3].a[  0] =       197.300305470000;     BAS[ATNO][  3].d[  0] =         0.000003467893;
  BAS[ATNO][  3].a[  1] =        20.061411349000;     BAS[ATNO][  3].d[  1] =         0.000310292514;
  BAS[ATNO][  3].a[  2] =         9.763146048500;     BAS[ATNO][  3].d[  2] =        -0.001339051765;
  BAS[ATNO][  3].a[  3] =       197.300305470000;     BAS[ATNO][  3].d[  3] =        -0.000005537653;
  BAS[ATNO][  3].a[  4] =        20.061411349000;     BAS[ATNO][  3].d[  4] =        -0.000495485919;
  BAS[ATNO][  3].a[  5] =         9.763146048500;     BAS[ATNO][  3].d[  5] =         0.002138244602;
  BAS[ATNO][  3].a[  6] =       197.300305470000;     BAS[ATNO][  3].d[  6] =         0.000218697204;
  BAS[ATNO][  3].a[  7] =        20.061411349000;     BAS[ATNO][  3].d[  7] =         0.019568105983;
  BAS[ATNO][  3].a[  8] =         9.763146048500;     BAS[ATNO][  3].d[  8] =        -0.084445178809;
  BAS[ATNO][  3].a[  9] =        12.984316904000;     BAS[ATNO][  3].d[  9] =        -0.000464165574;
  BAS[ATNO][  3].a[ 10] =         3.619950300800;     BAS[ATNO][  3].d[ 10] =         0.003679051531;
  BAS[ATNO][  3].a[ 11] =         2.023227309000;     BAS[ATNO][  3].d[ 11] =         0.006202983375;
  BAS[ATNO][  3].a[ 12] =         1.036749055900;     BAS[ATNO][  3].d[ 12] =         0.003006774040;
  BAS[ATNO][  3].a[ 13] =        12.984316904000;     BAS[ATNO][  3].d[ 13] =         0.000741195793;
  BAS[ATNO][  3].a[ 14] =         3.619950300800;     BAS[ATNO][  3].d[ 14] =        -0.005874837916;
  BAS[ATNO][  3].a[ 15] =         2.023227309000;     BAS[ATNO][  3].d[ 15] =        -0.009905140390;
  BAS[ATNO][  3].a[ 16] =         1.036749055900;     BAS[ATNO][  3].d[ 16] =        -0.004801321750;
  BAS[ATNO][  3].a[ 17] =        12.984316904000;     BAS[ATNO][  3].d[ 17] =        -0.029271866831;
  BAS[ATNO][  3].a[ 18] =         3.619950300800;     BAS[ATNO][  3].d[ 18] =         0.232013558122;
  BAS[ATNO][  3].a[ 19] =         2.023227309000;     BAS[ATNO][  3].d[ 19] =         0.391181322526;
  BAS[ATNO][  3].a[ 20] =         1.036749055900;     BAS[ATNO][  3].d[ 20] =         0.189617442873;

  // Basis function   5 L = s
  InitBFNGauss(BAS[ATNO][  4]);
  BAS[ATNO][  4].l  = 0;
  BAS[ATNO][  4].ng = 11;
  BAS[ATNO][  4].a[  0] =      5899.579153300000;     BAS[ATNO][  4].d[  0] =         0.001244225510;
  BAS[ATNO][  4].a[  1] =       898.542387650000;     BAS[ATNO][  4].d[  1] =         0.007959726165;
  BAS[ATNO][  4].a[  2] =       200.372379120000;     BAS[ATNO][  4].d[  2] =         0.022034855397;
  BAS[ATNO][  4].a[  3] =        31.418053840000;     BAS[ATNO][  4].d[  3] =        -0.202762782873;
  BAS[ATNO][  4].a[  4] =        15.645987838000;     BAS[ATNO][  4].d[  4] =         4.942624324895;
  BAS[ATNO][  4].a[  5] =        11.815741857000;     BAS[ATNO][  4].d[  5] =        -4.567307218093;
  BAS[ATNO][  4].a[  6] =         6.461445828700;     BAS[ATNO][  4].d[  6] =        -2.555109505669;
  BAS[ATNO][  4].a[  7] =         2.383806757900;     BAS[ATNO][  4].d[  7] =         4.181680912288;
  BAS[ATNO][  4].a[  8] =         1.171208966200;     BAS[ATNO][  4].d[  8] =        -2.750937537195;
  BAS[ATNO][  4].a[  9] =         0.321158757600;     BAS[ATNO][  4].d[  9] =         0.869613257987;
  BAS[ATNO][  4].a[ 10] =         0.123879193600;     BAS[ATNO][  4].d[ 10] =        -0.314163225610;

  // Basis function   6 L = s
  InitBFNGauss(BAS[ATNO][  5]);
  BAS[ATNO][  5].l  = 0;
  BAS[ATNO][  5].ng = 11;
  BAS[ATNO][  5].a[  0] =      5899.579153300000;     BAS[ATNO][  5].d[  0] =         0.001022923430;
  BAS[ATNO][  5].a[  1] =       898.542387650000;     BAS[ATNO][  5].d[  1] =         0.006543982842;
  BAS[ATNO][  5].a[  2] =       200.372379120000;     BAS[ATNO][  5].d[  2] =         0.018115662859;
  BAS[ATNO][  5].a[  3] =        31.418053840000;     BAS[ATNO][  5].d[  3] =        -0.166698721126;
  BAS[ATNO][  5].a[  4] =        15.645987838000;     BAS[ATNO][  5].d[  4] =         4.063512752625;
  BAS[ATNO][  5].a[  5] =        11.815741857000;     BAS[ATNO][  5].d[  5] =        -2.460188832514;
  BAS[ATNO][  5].a[  6] =         6.461445828700;     BAS[ATNO][  5].d[  6] =        -1.376314657966;
  BAS[ATNO][  5].a[  7] =         2.383806757900;     BAS[ATNO][  5].d[  7] =         1.459109760322;
  BAS[ATNO][  5].a[  8] =         1.171208966200;     BAS[ATNO][  5].d[  8] =        -0.864336625030;
  BAS[ATNO][  5].a[  9] =         0.321158757600;     BAS[ATNO][  5].d[  9] =         0.256729919616;
  BAS[ATNO][  5].a[ 10] =         0.123879193600;     BAS[ATNO][  5].d[ 10] =        -0.091920373884;

  // Basis function   7 L = p
  InitBFNGauss(BAS[ATNO][  6]);
  BAS[ATNO][  6].l  = 1;
  BAS[ATNO][  6].ng = 21;
  BAS[ATNO][  6].a[  0] =       898.542387650000;     BAS[ATNO][  6].d[  0] =         0.000000000021;
  BAS[ATNO][  6].a[  1] =       200.372379120000;     BAS[ATNO][  6].d[  1] =         0.000000000121;
  BAS[ATNO][  6].a[  2] =        31.418053840000;     BAS[ATNO][  6].d[  2] =        -0.000000002807;
  BAS[ATNO][  6].a[  3] =        15.645987838000;     BAS[ATNO][  6].d[  3] =         0.000000096958;
  BAS[ATNO][  6].a[  4] =        11.815741857000;     BAS[ATNO][  6].d[  4] =        -0.000000154731;
  BAS[ATNO][  6].a[  5] =         6.461445828700;     BAS[ATNO][  6].d[  5] =        -0.000000117056;
  BAS[ATNO][  6].a[  6] =         2.383806757900;     BAS[ATNO][  6].d[  6] =         0.000000985680;
  BAS[ATNO][  6].a[  7] =         1.171208966200;     BAS[ATNO][  6].d[  7] =        -0.000000658688;
  BAS[ATNO][  6].a[  8] =         0.321158757600;     BAS[ATNO][  6].d[  8] =        -0.000001441455;
  BAS[ATNO][  6].a[  9] =       197.300305470000;     BAS[ATNO][  6].d[  9] =         0.000072914103;
  BAS[ATNO][  6].a[ 10] =        20.061411349000;     BAS[ATNO][  6].d[ 10] =         0.006524047270;
  BAS[ATNO][  6].a[ 11] =         9.763146048500;     BAS[ATNO][  6].d[ 11] =        -0.028154198405;
  BAS[ATNO][  6].a[ 12] =       197.300305470000;     BAS[ATNO][  6].d[ 12] =        -0.000206189293;
  BAS[ATNO][  6].a[ 13] =        20.061411349000;     BAS[ATNO][  6].d[ 13] =        -0.018448950718;
  BAS[ATNO][  6].a[ 14] =         9.763146048500;     BAS[ATNO][  6].d[ 14] =         0.079615520455;
  BAS[ATNO][  6].a[ 15] =       197.300305470000;     BAS[ATNO][  6].d[ 15] =        -0.000006377142;
  BAS[ATNO][  6].a[ 16] =        20.061411349000;     BAS[ATNO][  6].d[ 16] =        -0.000570599849;
  BAS[ATNO][  6].a[ 17] =         9.763146048500;     BAS[ATNO][  6].d[ 17] =         0.002462394998;
  BAS[ATNO][  6].a[ 18] =        12.984316904000;     BAS[ATNO][  6].d[ 18] =        -0.009759301440;
  BAS[ATNO][  6].a[ 19] =         3.619950300800;     BAS[ATNO][  6].d[ 19] =         0.077353804082;
  BAS[ATNO][  6].a[ 20] =         2.023227309000;     BAS[ATNO][  6].d[ 20] =         0.130420668638;

  // Basis function   8 L = p
  InitBFNGauss(BAS[ATNO][  7]);
  BAS[ATNO][  7].l  = 1;
  BAS[ATNO][  7].ng = 21;
  BAS[ATNO][  7].a[  0] =       197.300305470000;     BAS[ATNO][  7].d[  0] =         0.000001249528;
  BAS[ATNO][  7].a[  1] =        20.061411349000;     BAS[ATNO][  7].d[  1] =         0.000111802493;
  BAS[ATNO][  7].a[  2] =         9.763146048500;     BAS[ATNO][  7].d[  2] =        -0.000482478043;
  BAS[ATNO][  7].a[  3] =       197.300305470000;     BAS[ATNO][  7].d[  3] =        -0.000001995287;
  BAS[ATNO][  7].a[  4] =        20.061411349000;     BAS[ATNO][  7].d[  4] =        -0.000178529930;
  BAS[ATNO][  7].a[  5] =         9.763146048500;     BAS[ATNO][  7].d[  5] =         0.000770436947;
  BAS[ATNO][  7].a[  6] =       197.300305470000;     BAS[ATNO][  7].d[  6] =         0.000078799603;
  BAS[ATNO][  7].a[  7] =        20.061411349000;     BAS[ATNO][  7].d[  7] =         0.007050657048;
  BAS[ATNO][  7].a[  8] =         9.763146048500;     BAS[ATNO][  7].d[  8] =        -0.030426756460;
  BAS[ATNO][  7].a[  9] =        12.984316904000;     BAS[ATNO][  7].d[  9] =        -0.000192819920;
  BAS[ATNO][  7].a[ 10] =         3.619950300800;     BAS[ATNO][  7].d[ 10] =         0.001528321921;
  BAS[ATNO][  7].a[ 11] =         2.023227309000;     BAS[ATNO][  7].d[ 11] =         0.002576793336;
  BAS[ATNO][  7].a[ 12] =         1.036749055900;     BAS[ATNO][  7].d[ 12] =         0.001249049827;
  BAS[ATNO][  7].a[ 13] =        12.984316904000;     BAS[ATNO][  7].d[ 13] =         0.000307901246;
  BAS[ATNO][  7].a[ 14] =         3.619950300800;     BAS[ATNO][  7].d[ 14] =        -0.002440475152;
  BAS[ATNO][  7].a[ 15] =         2.023227309000;     BAS[ATNO][  7].d[ 15] =        -0.004114709095;
  BAS[ATNO][  7].a[ 16] =         1.036749055900;     BAS[ATNO][  7].d[ 16] =        -0.001994524206;
  BAS[ATNO][  7].a[ 17] =        12.984316904000;     BAS[ATNO][  7].d[ 17] =        -0.012159899992;
  BAS[ATNO][  7].a[ 18] =         3.619950300800;     BAS[ATNO][  7].d[ 18] =         0.096381337063;
  BAS[ATNO][  7].a[ 19] =         2.023227309000;     BAS[ATNO][  7].d[ 19] =         0.162501619321;
  BAS[ATNO][  7].a[ 20] =         1.036749055900;     BAS[ATNO][  7].d[ 20] =         0.078769459952;

  // Basis function   9 L = p
  InitBFNGauss(BAS[ATNO][  8]);
  BAS[ATNO][  8].l  = 1;
  BAS[ATNO][  8].ng = 21;
  BAS[ATNO][  8].a[  0] =       197.300305470000;     BAS[ATNO][  8].d[  0] =         0.000001584036;
  BAS[ATNO][  8].a[  1] =        20.061411349000;     BAS[ATNO][  8].d[  1] =         0.000141732917;
  BAS[ATNO][  8].a[  2] =         9.763146048500;     BAS[ATNO][  8].d[  2] =        -0.000611641286;
  BAS[ATNO][  8].a[  3] =       197.300305470000;     BAS[ATNO][  8].d[  3] =        -0.000002529443;
  BAS[ATNO][  8].a[  4] =        20.061411349000;     BAS[ATNO][  8].d[  4] =        -0.000226323889;
  BAS[ATNO][  8].a[  5] =         9.763146048500;     BAS[ATNO][  8].d[  5] =         0.000976689380;
  BAS[ATNO][  8].a[  6] =       197.300305470000;     BAS[ATNO][  8].d[  6] =         0.000099894852;
  BAS[ATNO][  8].a[  7] =        20.061411349000;     BAS[ATNO][  8].d[  7] =         0.008938171172;
  BAS[ATNO][  8].a[  8] =         9.763146048500;     BAS[ATNO][  8].d[  8] =        -0.038572228884;
  BAS[ATNO][  8].a[  9] =        12.984316904000;     BAS[ATNO][  8].d[  9] =        -0.000249473500;
  BAS[ATNO][  8].a[ 10] =         3.619950300800;     BAS[ATNO][  8].d[ 10] =         0.001977367375;
  BAS[ATNO][  8].a[ 11] =         2.023227309000;     BAS[ATNO][  8].d[ 11] =         0.003333896481;
  BAS[ATNO][  8].a[ 12] =         1.036749055900;     BAS[ATNO][  8].d[ 12] =         0.001616040668;
  BAS[ATNO][  8].a[ 13] =        12.984316904000;     BAS[ATNO][  8].d[ 13] =         0.000398367677;
  BAS[ATNO][  8].a[ 14] =         3.619950300800;     BAS[ATNO][  8].d[ 14] =        -0.003157526739;
  BAS[ATNO][  8].a[ 15] =         2.023227309000;     BAS[ATNO][  8].d[ 15] =        -0.005323678046;
  BAS[ATNO][  8].a[ 16] =         1.036749055900;     BAS[ATNO][  8].d[ 16] =        -0.002580548098;
  BAS[ATNO][  8].a[ 17] =        12.984316904000;     BAS[ATNO][  8].d[ 17] =        -0.015732667463;
  BAS[ATNO][  8].a[ 18] =         3.619950300800;     BAS[ATNO][  8].d[ 18] =         0.124699670775;
  BAS[ATNO][  8].a[ 19] =         2.023227309000;     BAS[ATNO][  8].d[ 19] =         0.210247118863;
  BAS[ATNO][  8].a[ 20] =         1.036749055900;     BAS[ATNO][  8].d[ 20] =         0.101913150641;

  // Basis function  10 L = p
  InitBFNGauss(BAS[ATNO][  9]);
  BAS[ATNO][  9].l  = 1;
  BAS[ATNO][  9].ng = 21;
  BAS[ATNO][  9].a[  0] =      5899.579153300000;     BAS[ATNO][  9].d[  0] =        -0.000000000002;
  BAS[ATNO][  9].a[  1] =       898.542387650000;     BAS[ATNO][  9].d[  1] =        -0.000000000025;
  BAS[ATNO][  9].a[  2] =       200.372379120000;     BAS[ATNO][  9].d[  2] =        -0.000000000146;
  BAS[ATNO][  9].a[  3] =        31.418053840000;     BAS[ATNO][  9].d[  3] =         0.000000003383;
  BAS[ATNO][  9].a[  4] =        15.645987838000;     BAS[ATNO][  9].d[  4] =        -0.000000116865;
  BAS[ATNO][  9].a[  5] =        11.815741857000;     BAS[ATNO][  9].d[  5] =         0.000000123944;
  BAS[ATNO][  9].a[  6] =         6.461445828700;     BAS[ATNO][  9].d[  6] =         0.000000093765;
  BAS[ATNO][  9].a[  7] =         2.383806757900;     BAS[ATNO][  9].d[  7] =        -0.000000245133;
  BAS[ATNO][  9].a[  8] =         1.171208966200;     BAS[ATNO][  9].d[  8] =         0.000000232203;
  BAS[ATNO][  9].a[  9] =       197.300305470000;     BAS[ATNO][  9].d[  9] =         0.001352484739;
  BAS[ATNO][  9].a[ 10] =        20.061411349000;     BAS[ATNO][  9].d[ 10] =         0.121014645702;
  BAS[ATNO][  9].a[ 11] =         9.763146048500;     BAS[ATNO][  9].d[ 11] =        -0.522232627083;
  BAS[ATNO][  9].a[ 12] =       197.300305470000;     BAS[ATNO][  9].d[ 12] =        -0.003824608085;
  BAS[ATNO][  9].a[ 13] =        20.061411349000;     BAS[ATNO][  9].d[ 13] =        -0.342209844750;
  BAS[ATNO][  9].a[ 14] =         9.763146048500;     BAS[ATNO][  9].d[ 14] =         1.476789401820;
  BAS[ATNO][  9].a[ 15] =       197.300305470000;     BAS[ATNO][  9].d[ 15] =        -0.000118283607;
  BAS[ATNO][  9].a[ 16] =        20.061411349000;     BAS[ATNO][  9].d[ 16] =        -0.010583519636;
  BAS[ATNO][  9].a[ 17] =         9.763146048500;     BAS[ATNO][  9].d[ 17] =         0.045672647565;
  BAS[ATNO][  9].a[ 18] =        12.984316904000;     BAS[ATNO][  9].d[ 18] =        -0.010882900619;
  BAS[ATNO][  9].a[ 19] =         3.619950300800;     BAS[ATNO][  9].d[ 19] =         0.086259633176;
  BAS[ATNO][  9].a[ 20] =         2.023227309000;     BAS[ATNO][  9].d[ 20] =         0.145436144593;

-------------------------------------------
RADIAL EXPECTATION VALUES <R**-3> TO <R**3>
-------------------------------------------
   0 :     0.000000     2.578270     1.523879     0.712869     0.549570     0.456881
   1 :     4.069237     2.263312     1.428953     0.768048     0.646861     0.615789
   2 :     4.069237     2.263312     1.428953     0.768048     0.646861     0.615789
   3 :     4.070031     2.263592     1.429041     0.768000     0.646769     0.615522
   4 :     0.000000     0.958642     0.841560     1.419860     2.264573     3.965070
   5 :     0.817321     0.605587     0.683004     1.682697     3.100668     6.279628
   6 :     0.000000     0.256479     0.398870     3.038766    10.148982    36.182563
   7 :     0.000000     0.992559     0.754663     2.062606     5.830872    20.103317
   8 :     0.000000    13.572169     2.729869     0.517251     0.484850     0.942485
   9 :     0.000000   105.019072     7.886148     0.186146     0.069615     0.088351
  10 :     0.817321     0.605587     0.683004     1.682697     3.100668     6.279629
  11 :     0.822366     0.608294     0.684605     1.677787     3.077799     6.183319
  12 :     0.117607     0.131909     0.308870     3.703440    14.933640    64.764674
  13 :     0.124480     0.136013     0.311950     3.681910    14.777003    63.801868
  14 :     0.124480     0.136013     0.311950     3.681910    14.777006    63.801886
  15 :     0.163594     0.147727     0.298197     4.312415    21.398223   115.865881
  16 :     0.163594     0.147727     0.298197     4.312416    21.398226   115.865901
  17 :     0.165195     0.148996     0.299628     4.295815    21.264434   114.999074
  18 :    43.048906    10.235196     2.922028     0.466324     0.447877     1.162575
  19 :    43.048906    10.235196     2.922028     0.466324     0.447877     1.162575
  20 :    43.048340    10.235043     2.921989     0.466353     0.447991     1.163155
Making the total density                ... o.k.
o.k.
Initializing the integrals              ... done
Making exponents                        ... done
Making rho(0)                           ... done (         0.888871742)
Integral calculation                    ... Two index integrals                     ... done
Solving the equation system             ... done
atomic density will be written to file I2_atom53.adf

-------
TIMINGS
-------

Total SCF time: 0 days 0 hours 0 min 0 sec 

Total time                  ....       0.756 sec
Sum of individual times     ....       0.201 sec  ( 26.6%)

Fock matrix formation       ....       0.188 sec  ( 24.8%)
Diagonalization             ....       0.009 sec  (  1.2%)
Density matrix formation    ....       0.000 sec  (  0.1%)
Population analysis         ....       0.000 sec  (  0.0%)
Initial guess               ....       0.000 sec  (  0.0%)
Orbital Transformation      ....       0.000 sec  (  0.0%)
Orbital Orthonormalization  ....       0.000 sec  (  0.0%)
DIIS solution               ....       0.004 sec  (  0.5%)

-------------------------   --------------------
FINAL SINGLE POINT ENERGY      -254.989917550190
-------------------------   --------------------


                            ***************************************
                            *     ORCA property calculations      *
                            ***************************************

                                    ---------------------
                                    Active property flags
                                    ---------------------
   (+) Dipole Moment


------------------------------------------------------------------------------
                       ORCA ELECTRIC PROPERTIES CALCULATION
------------------------------------------------------------------------------

Dipole Moment Calculation                       ... on
Quadrupole Moment Calculation                   ... off
Polarizability Calculation                      ... off
GBWName                                         ... I2_atom53.gbw
Electron density file                           ... I2_atom53.scfp
The origin for moment calculation is the CENTER OF MASS  = ( 0.000000,  0.000000  0.000000)

-------------
DIPOLE MOMENT
-------------
                                X             Y             Z
Electronic contribution:      0.00049       0.00000       0.00069
Nuclear contribution   :      0.00000       0.00000       0.00000
                        -----------------------------------------
Total Dipole Moment    :      0.00049       0.00000       0.00069
                        -----------------------------------------
Magnitude (a.u.)       :      0.00085
Magnitude (Debye)      :      0.00215



--------------------
Rotational spectrum 
--------------------
 
Rotational constants in cm-1:     0.000000     0.000000     0.000000 
Rotational constants in MHz :     0.000000     0.000000     0.000000 

 Dipole components along the rotational axes: 
x,y,z [a.u.] :     0.000490     0.000001     0.000690 
x,y,z [Debye]:     0.001245     0.000004     0.001753 

 

Timings for individual modules:

Sum of individual times         ...        3.330 sec (=   0.056 min)
GTO integral calculation        ...        1.343 sec (=   0.022 min)  40.3 %
SCF iterations                  ...        1.987 sec (=   0.033 min)  59.7 %
                             ****ORCA TERMINATED NORMALLY****
TOTAL RUN TIME: 0 days 0 hours 0 minutes 4 seconds 604 msec
