Warning: no access to tty (Bad file descriptor).
Thus no job control in this shell.

                                 *****************
                                 * O   R   C   A *
                                 *****************

           --- An Ab Initio, DFT and Semiempirical electronic structure package ---

                  #######################################################
                  #                        -***-                        #
                  #          Department of theory and spectroscopy      #
                  #               Directorship: Frank Neese             #
                  #        Max Planck Institute fuer Kohlenforschung    #
                  #                Kaiser Wilhelm Platz 1               #
                  #                 D-45470 Muelheim/Ruhr               #
                  #                      Germany                        #
                  #                                                     #
                  #                  All rights reserved                #
                  #                        -***-                        #
                  #######################################################


                         Program Version 4.2.1 -  RELEASE  -


 With contributions from (in alphabetic order):
   Daniel Aravena         : Magnetic Suceptibility
   Michael Atanasov       : Ab Initio Ligand Field Theory (pilot matlab implementation)
   Alexander A. Auer      : GIAO ZORA, VPT2
   Ute Becker             : Parallelization
   Giovanni Bistoni       : ED, misc. LED, open-shell LED, HFLD
   Martin Brehm           : Molecular dynamics
   Dmytro Bykov           : SCF Hessian
   Vijay G. Chilkuri      : MRCI spin determinant printing, contributions to CSF-ICE
   Dipayan Datta          : RHF DLPNO-CCSD density
   Achintya Kumar Dutta   : EOM-CC, STEOM-CC
   Dmitry Ganyushin       : Spin-Orbit,Spin-Spin,Magnetic field MRCI
   Miquel Garcia          : C-PCM Hessian, Gaussian charge scheme
   Yang Guo               : DLPNO-NEVPT2, CIM, IAO-localization
   Andreas Hansen         : Spin unrestricted coupled pair/coupled cluster methods
   Benjamin Helmich-Paris : CASSCF linear response (MC-RPA)
   Lee Huntington         : MR-EOM, pCC
   Robert Izsak           : Overlap fitted RIJCOSX, COSX-SCS-MP3, EOM
   Christian Kollmar      : KDIIS, OOCD, Brueckner-CCSD(T), CCSD density
   Simone Kossmann        : Meta GGA functionals, TD-DFT gradient, OOMP2, MP2 Hessian
   Martin Krupicka        : AUTO-CI
   Lucas Lang             : DCDCAS
   Dagmar Lenk            : GEPOL surface, SMD
   Dimitrios Liakos       : Extrapolation schemes; Compound Job, initial MDCI parallelization
   Dimitrios Manganas     : Further ROCIS development; embedding schemes
   Dimitrios Pantazis     : SARC Basis sets
   Taras Petrenko         : DFT Hessian,TD-DFT gradient, ASA, ECA, R-Raman, ABS, FL, XAS/XES, NRVS
   Peter Pinski           : DLPNO-MP2, DLPNO-MP2 Gradient
   Christoph Reimann      : Effective Core Potentials
   Marius Retegan         : Local ZFS, SOC
   Christoph Riplinger    : Optimizer, TS searches, QM/MM, DLPNO-CCSD(T), (RO)-DLPNO pert. Triples
   Tobias Risthaus        : Range-separated hybrids, TD-DFT gradient, RPA, STAB
   Michael Roemelt        : Original ROCIS implementation
   Masaaki Saitow         : Open-shell DLPNO-CCSD energy and density
   Barbara Sandhoefer     : DKH picture change effects
   Avijit Sen             : IP-ROCIS
   Kantharuban Sivalingam : CASSCF convergence, NEVPT2, FIC-MRCI
   Bernardo de Souza      : ESD, SOC TD-DFT
   Georgi Stoychev        : AutoAux, RI-MP2 NMR
   Willem Van den Heuvel  : Paramagnetic NMR
   Boris Wezisla          : Elementary symmetry handling
   Frank Wennmohs         : Technical directorship


 We gratefully acknowledge several colleagues who have allowed us to
 interface, adapt or use parts of their codes:
   Stefan Grimme, W. Hujo, H. Kruse,             : VdW corrections, initial TS optimization,
                  C. Bannwarth                     DFT functionals, gCP, sTDA/sTD-DF
   Ed Valeev, F. Pavosevic, A. Kumar             : LibInt (2-el integral package), F12 methods
   Garnet Chan, S. Sharma, J. Yang, R. Olivares  : DMRG
   Ulf Ekstrom                                   : XCFun DFT Library
   Mihaly Kallay                                 : mrcc  (arbitrary order and MRCC methods)
   Andreas Klamt, Michael Diedenhofen            : otool_cosmo (COSMO solvation model)
   Jiri Pittner, Ondrej Demel                    : Mk-CCSD
   Frank Weinhold                                : gennbo (NPA and NBO analysis)
   Christopher J. Cramer and Donald G. Truhlar   : smd solvation model
   Lars Goerigk                                  : TD-DFT with DH, B97 family of functionals
   V. Asgeirsson, H. Jonsson                     : NEB implementation
   FAccTs GmbH                                   : IRC, NEB, NEB-TS, Multilevel, MM, QM/MM, CI optimization
   S Lehtola, MJT Oliveira, MAL Marques          : LibXC Library


 Your calculation uses the libint2 library for the computation of 2-el integrals
 For citations please refer to: http://libint.valeyev.net

 Your ORCA version has been built with support for libXC version: 4.2.3
 For citations please refer to: https://tddft.org/programs/libxc/

 This ORCA versions uses:
   CBLAS   interface :  Fast vector & matrix operations
   LAPACKE interface :  Fast linear algebra routines
   SCALAPACK package :  Parallel linear algebra routines


Your calculation utilizes the atom-pairwise dispersion correction
with the zero-damping scheme (D30)
Cite in your paper:
S.Grimme, J.Antony, S.Ehrlich and H.Krieg, J.Chem.Phys., 132, (2010), 154104 
   

XCFun DFT library Copyright 2009-2010 Ulf Ekstrom and contributors.
See http://admol.org/xcfun for more information. This is free soft-
ware; see the source code for copying conditions. There is ABSOLUTELY
NO WARRANTY; not even for MERCHANTABILITY or FITNESS FOR A PARTICULAR
PURPOSE. For details see the documentation. Scientific users of this 
library should cite U. Ekstrom, L. Visscher, R. Bast, A. J. Thorvald-
sen and K. Ruud; J.Chem.Theor.Comp. 2010, DOI: 10.1021/ct100117s
XCFun Version 0.99 
----- Orbital basis set information -----
Your calculation utilizes the basis: def2-TZVP
   F. Weigend and R. Ahlrichs, Phys. Chem. Chem. Phys. 7, 3297 (2005).

----- AuxJ basis set information -----
Your calculation utilizes the auxiliary basis: def2/J
   F. Weigend, Phys. Chem. Chem. Phys. 8, 1057 (2006).

================================================================================
                                        WARNINGS
                       Please study these warnings very carefully!
================================================================================


WARNING: Geometry Optimization
  ===> : Switching off AutoStart
         For restart on a previous wavefunction, please use MOREAD

INFO   : the flag for use of LIBINT has been found!

================================================================================
                                       INPUT FILE
================================================================================
NAME = DMimC.inp
|  1> # avogadro generated ORCA input file 
|  2> # Basic Mode
|  3> # 
|  4> ! wB97X-D3 OPT def2-TZVP def2/J CPCM
|  5> %cpcm
|  6>   epsilon 3
|  7> end
|  8> %pal
|  9>  nprocs 4
| 10> end
| 11>  
| 12> 
| 13> * xyz 1 1
| 14>    C        1.49209        0.13279        0.87825
| 15>    N        2.61562       -0.03249       -0.03300
| 16>    H        2.05878       -0.15067       -0.89498
| 17>    C        3.49301        1.07568       -0.11156
| 18>    C        4.78265        0.64417        0.05324
| 19>    N        4.74613       -0.74800        0.23004
| 20>    C        3.51058       -1.13265        0.17680
| 21>    C        3.05274       -2.55203        0.28667
| 22>    O        1.87122       -2.82462        0.15558
| 23>    O        3.92399       -3.55472        0.50584
| 24>    C        5.92206       -1.57240        0.42090
| 25>    H        0.88478        1.02390        0.59772
| 26>    H        1.86244        0.27947        1.91660
| 27>    H        0.81783       -0.74936        0.87320
| 28>    H        3.18758        2.10298       -0.26588
| 29>    H        5.67225        1.26060        0.04675
| 30>    H        6.84080       -0.94771        0.41448
| 31>    H        6.00459       -2.31410       -0.40143
| 32>    H        5.86652       -2.09294        1.40024
| 33> *
| 34> 
| 35> 
| 36>                          ****END OF INPUT****
================================================================================

                       *****************************
                       * Geometry Optimization Run *
                       *****************************

Geometry optimization settings:
Update method            Update   .... BFGS
Choice of coordinates    CoordSys .... Z-matrix Internals
Initial Hessian          InHess   .... Almoef's Model

Convergence Tolerances:
Energy Change            TolE     ....  5.0000e-06 Eh
Max. Gradient            TolMAXG  ....  3.0000e-04 Eh/bohr
RMS Gradient             TolRMSG  ....  1.0000e-04 Eh/bohr
Max. Displacement        TolMAXD  ....  4.0000e-03 bohr
RMS Displacement         TolRMSD  ....  2.0000e-03 bohr
Strict Convergence                ....  False
------------------------------------------------------------------------------
                        ORCA OPTIMIZATION COORDINATE SETUP
------------------------------------------------------------------------------

The optimization will be done in new redundant internal coordinates
Making redundant internal coordinates   ...  (new redundants) done
Evaluating the initial hessian          ...  (Almloef) done
Evaluating the coordinates              ...  done
Calculating the B-matrix                .... done
Calculating the G-matrix                .... done
Diagonalizing the G-matrix              .... done
The first mode is                       ....   44
The number of degrees of freedom        ....   51

    -----------------------------------------------------------------
                    Redundant Internal Coordinates


    -----------------------------------------------------------------
         Definition                    Initial Value    Approx d2E/dq
    -----------------------------------------------------------------
      1. B(N   1,C   0)                  1.4560         0.439070   
      2. B(H   2,N   1)                  1.0330         0.397679   
      3. B(C   3,N   1)                  1.4156         0.509301   
      4. B(C   4,C   3)                  1.3699         0.672763   
      5. B(N   5,C   4)                  1.4038         0.531883   
      6. B(C   6,N   5)                  1.2951         0.792916   
      7. B(C   6,N   1)                  1.4336         0.476707   
      8. B(C   7,C   6)                  1.4954         0.424153   
      9. B(O   8,C   7)                  1.2196         1.046409   
     10. B(O   9,C   7)                  1.3463         0.657068   
     11. B(C  10,N   5)                  1.4487         0.450967   
     12. B(H  11,C   0)                  1.1143         0.329382   
     13. B(H  12,C   0)                  1.1121         0.331977   
     14. B(H  13,C   0)                  1.1103         0.334181   
     15. B(H  14,C   3)                  1.0828         0.369757   
     16. B(H  15,C   4)                  1.0823         0.370405   
     17. B(H  16,C  10)                  1.1110         0.333342   
     18. B(H  17,C  10)                  1.1105         0.334007   
     19. B(H  18,C  10)                  1.1105         0.334008   
     20. A(H  11,C   0,H  12)          108.1244         0.283200   
     21. A(N   1,C   0,H  12)          110.0191         0.326659   
     22. A(H  12,C   0,H  13)          108.1348         0.283836   
     23. A(N   1,C   0,H  13)          112.0585         0.327015   
     24. A(N   1,C   0,H  11)          110.7189         0.326237   
     25. A(H  11,C   0,H  13)          107.6532         0.283491   
     26. A(C   0,N   1,C   3)          115.0951         0.389244   
     27. A(C   0,N   1,C   6)          118.5044         0.384783   
     28. A(C   3,N   1,C   6)          102.8226         0.394885   
     29. A(C   0,N   1,H   2)           96.8499         0.333689   
     30. A(H   2,N   1,C   6)          111.7671         0.338286   
     31. A(H   2,N   1,C   3)          112.1698         0.342046   
     32. A(N   1,C   3,H  14)          125.1535         0.340845   
     33. A(C   4,C   3,H  14)          125.5602         0.359448   
     34. A(N   1,C   3,C   4)          109.2825         0.422433   
     35. A(N   5,C   4,H  15)          125.9411         0.343431   
     36. A(C   3,C   4,H  15)          126.4181         0.359555   
     37. A(C   3,C   4,N   5)          107.6407         0.425724   
     38. A(C   4,N   5,C   6)          108.3108         0.435607   
     39. A(C   6,N   5,C  10)          127.6442         0.422900   
     40. A(C   4,N   5,C  10)          124.0415         0.394047   
     41. A(N   5,C   6,C   7)          124.8161         0.421031   
     42. A(N   1,C   6,C   7)          123.2293         0.384913   
     43. A(N   1,C   6,N   5)          111.9404         0.427121   
     44. A(O   8,C   7,O   9)          118.5527         0.476153   
     45. A(C   6,C   7,O   9)          121.3814         0.407204   
     46. A(C   6,C   7,O   8)          120.0551         0.442546   
     47. A(N   5,C  10,H  18)          110.0188         0.328432   
     48. A(H  16,C  10,H  17)          108.0477         0.283994   
     49. A(N   5,C  10,H  17)          110.0498         0.328431   
     50. A(N   5,C  10,H  16)          110.5177         0.328324   
     51. A(H  17,C  10,H  18)          110.1027         0.284083   
     52. A(H  16,C  10,H  18)          108.0605         0.283995   
     53. D(C   3,N   1,C   0,H  11)     57.7294         0.017620   
     54. D(H   2,N   1,C   0,H  11)    -60.6912         0.017620   
     55. D(H   2,N   1,C   0,H  12)    179.8504         0.017620   
     56. D(C   6,N   1,C   0,H  12)     60.4930         0.017620   
     57. D(C   3,N   1,C   0,H  13)    177.9349         0.017620   
     58. D(C   6,N   1,C   0,H  11)    179.9514         0.017620   
     59. D(C   3,N   1,C   0,H  12)    -61.7289         0.017620   
     60. D(C   6,N   1,C   0,H  13)    -59.8432         0.017620   
     61. D(H   2,N   1,C   0,H  13)     59.5142         0.017620   
     62. D(H  14,C   3,N   1,C   0)    -49.5523         0.022280   
     63. D(H  14,C   3,N   1,C   6)   -179.8714         0.022280   
     64. D(C   4,C   3,N   1,C   6)     -0.5459         0.022280   
     65. D(H  14,C   3,N   1,H   2)     59.9016         0.022280   
     66. D(C   4,C   3,N   1,H   2)   -120.7729         0.022280   
     67. D(C   4,C   3,N   1,C   0)    129.7732         0.022280   
     68. D(H  15,C   4,C   3,H  14)     -0.4067         0.031674   
     69. D(H  15,C   4,C   3,N   1)   -179.7288         0.031674   
     70. D(N   5,C   4,C   3,H  14)    179.7270         0.031674   
     71. D(N   5,C   4,C   3,N   1)      0.4049         0.031674   
     72. D(C  10,N   5,C   4,H  15)     -0.5790         0.022473   
     73. D(C  10,N   5,C   4,C   3)    179.2881         0.022473   
     74. D(C   6,N   5,C   4,H  15)   -179.9374         0.022473   
     75. D(C   6,N   5,C   4,C   3)     -0.0703         0.022473   
     76. D(N   1,C   6,N   5,C   4)     -0.2928         0.053486   
     77. D(C   7,C   6,N   1,C   3)   -178.1671         0.019430   
     78. D(C   7,C   6,N   1,H   2)    -57.6629         0.019430   
     79. D(C   7,C   6,N   1,C   0)     53.6208         0.019430   
     80. D(N   5,C   6,N   1,C   3)      0.5199         0.019430   
     81. D(N   5,C   6,N   1,H   2)    121.0241         0.019430   
     82. D(N   1,C   6,N   5,C  10)   -179.6214         0.053486   
     83. D(N   5,C   6,N   1,C   0)   -127.6922         0.019430   
     84. D(C   7,C   6,N   5,C  10)     -0.9592         0.053486   
     85. D(C   7,C   6,N   5,C   4)    178.3694         0.053486   
     86. D(O   9,C   7,C   6,N   5)      2.5889         0.012303   
     87. D(O   9,C   7,C   6,N   1)   -178.8946         0.012303   
     88. D(O   8,C   7,C   6,N   5)   -176.2002         0.012303   
     89. D(O   8,C   7,C   6,N   1)      2.3164         0.012303   
     90. D(H  18,C  10,N   5,C   4)    119.6874         0.017350   
     91. D(H  17,C  10,N   5,C   6)     60.4099         0.017350   
     92. D(H  17,C  10,N   5,C   4)   -118.8209         0.017350   
     93. D(H  16,C  10,N   5,C   6)    179.6659         0.017350   
     94. D(H  18,C  10,N   5,C   6)    -61.0818         0.017350   
     95. D(H  16,C  10,N   5,C   4)      0.4352         0.017350   
    -----------------------------------------------------------------

Number of atoms                         .... 19
Number of degrees of freedom            .... 95

         *************************************************************
         *                GEOMETRY OPTIMIZATION CYCLE   1            *
         *************************************************************
---------------------------------
CARTESIAN COORDINATES (ANGSTROEM)
---------------------------------
  C      1.492090    0.132790    0.878250
  N      2.615620   -0.032490   -0.033000
  H      2.058780   -0.150670   -0.894980
  C      3.493010    1.075680   -0.111560
  C      4.782650    0.644170    0.053240
  N      4.746130   -0.748000    0.230040
  C      3.510580   -1.132650    0.176800
  C      3.052740   -2.552030    0.286670
  O      1.871220   -2.824620    0.155580
  O      3.923990   -3.554720    0.505840
  C      5.922060   -1.572400    0.420900
  H      0.884780    1.023900    0.597720
  H      1.862440    0.279470    1.916600
  H      0.817830   -0.749360    0.873200
  H      3.187580    2.102980   -0.265880
  H      5.672250    1.260600    0.046750
  H      6.840800   -0.947710    0.414480
  H      6.004590   -2.314100   -0.401430
  H      5.866520   -2.092940    1.400240

----------------------------
CARTESIAN COORDINATES (A.U.)
----------------------------
  NO LB      ZA    FRAG     MASS         X           Y           Z
   0 C     6.0000    0    12.011    2.819641    0.250937    1.659652
   1 N     7.0000    0    14.007    4.942805   -0.061397   -0.062361
   2 H     1.0000    0     1.008    3.890530   -0.284725   -1.691267
   3 C     6.0000    0    12.011    6.600832    2.032741   -0.210818
   4 C     6.0000    0    12.011    9.037899    1.217305    0.100609
   5 N     7.0000    0    14.007    8.968886   -1.413515    0.434713
   6 C     6.0000    0    12.011    6.634035   -2.140398    0.334104
   7 C     6.0000    0    12.011    5.768843   -4.822638    0.541728
   8 O     8.0000    0    15.999    3.536093   -5.337758    0.294004
   9 O     8.0000    0    15.999    7.415266   -6.717447    0.955899
  10 C     6.0000    0    12.011   11.191072   -2.971405    0.795386
  11 H     1.0000    0     1.008    1.671992    1.934891    1.129527
  12 H     1.0000    0     1.008    3.519502    0.528122    3.621849
  13 H     1.0000    0     1.008    1.545475   -1.416085    1.650109
  14 H     1.0000    0     1.008    6.023653    3.974056   -0.502440
  15 H     1.0000    0     1.008   10.718999    2.382189    0.088345
  16 H     1.0000    0     1.008   12.927239   -1.790912    0.783254
  17 H     1.0000    0     1.008   11.347031   -4.373015   -0.758593
  18 H     1.0000    0     1.008   11.086116   -3.955083    2.646070

--------------------------------
INTERNAL COORDINATES (ANGSTROEM)
--------------------------------
 C      0   0   0     0.000000000000     0.00000000     0.00000000
 N      1   0   0     1.456026683066     0.00000000     0.00000000
 H      2   1   0     1.032979582760    96.84990017     0.00000000
 C      2   1   3     1.415636123656   115.09514754   118.42062568
 C      4   2   1     1.369865412988   109.28248179   129.77317233
 N      5   4   2     1.403826648593   107.64066300     0.40490470
 C      6   5   4     1.295134712144   108.31075285   359.92966706
 C      7   6   5     1.495435878565   124.81608352   178.36939649
 O      8   7   6     1.219622649265   120.05512750   183.79983634
 O      8   7   6     1.346290937168   121.38135842     2.58886401
 C      6   5   4     1.448749206902   124.04152061   179.28809948
 H      1   2   3     1.114270859845   110.71888688   299.30881566
 H      1   2   3     1.112135273876   110.01911509   179.85043937
 H      1   2   3     1.110333586180   112.05851499    59.51422434
 H      4   2   1     1.082796119914   125.15352118   310.44765564
 H      5   4   2     1.082319834892   126.41807149   180.27117524
 H     11   6   5     1.111018451737   110.51766825     0.43516751
 H     11   6   5     1.110475897892   110.04983465   241.17908917
 H     11   6   5     1.110474411592   110.01884551   119.68742651

---------------------------
INTERNAL COORDINATES (A.U.)
---------------------------
 C      0   0   0     0.000000000000     0.00000000     0.00000000
 N      1   0   0     2.751491674676     0.00000000     0.00000000
 H      2   1   0     1.952048513350    96.84990017     0.00000000
 C      2   1   3     2.675164578996   115.09514754   118.42062568
 C      4   2   1     2.588670470878   109.28248179   129.77317233
 N      5   4   2     2.652847905341   107.64066300     0.40490470
 C      6   5   4     2.447449912487   108.31075285   359.92966706
 C      7   6   5     2.825964261328   124.81608352   178.36939649
 O      8   7   6     2.304752793838   120.05512750   183.79983634
 O      8   7   6     2.544121167827   121.38135842     2.58886401
 C      6   5   4     2.737739237781   124.04152061   179.28809948
 H      1   2   3     2.105666764116   110.71888688   299.30881566
 H      1   2   3     2.101631091500   110.01911509   179.85043937
 H      1   2   3     2.098226395175   112.05851499    59.51422434
 H      4   2   1     2.046188125509   125.15352118   310.44765564
 H      5   4   2     2.045288077256   126.41807149   180.27117524
 H     11   6   5     2.099520603516   110.51766825     0.43516751
 H     11   6   5     2.098495325337   110.04983465   241.17908917
 H     11   6   5     2.098492516636   110.01884551   119.68742651

---------------------
BASIS SET INFORMATION
---------------------
There are 4 groups of distinct atoms

 Group   1 Type C   : 11s6p2d1f contracted to 5s3p2d1f pattern {62111/411/11/1}
 Group   2 Type N   : 11s6p2d1f contracted to 5s3p2d1f pattern {62111/411/11/1}
 Group   3 Type H   : 5s1p contracted to 3s1p pattern {311/1}
 Group   4 Type O   : 11s6p2d1f contracted to 5s3p2d1f pattern {62111/411/11/1}

Atom   0C    basis set group =>   1
Atom   1N    basis set group =>   2
Atom   2H    basis set group =>   3
Atom   3C    basis set group =>   1
Atom   4C    basis set group =>   1
Atom   5N    basis set group =>   2
Atom   6C    basis set group =>   1
Atom   7C    basis set group =>   1
Atom   8O    basis set group =>   4
Atom   9O    basis set group =>   4
Atom  10C    basis set group =>   1
Atom  11H    basis set group =>   3
Atom  12H    basis set group =>   3
Atom  13H    basis set group =>   3
Atom  14H    basis set group =>   3
Atom  15H    basis set group =>   3
Atom  16H    basis set group =>   3
Atom  17H    basis set group =>   3
Atom  18H    basis set group =>   3
---------------------------------
AUXILIARY/J BASIS SET INFORMATION
---------------------------------
There are 4 groups of distinct atoms

 Group   1 Type C   : 12s5p4d2f1g contracted to 6s4p3d1f1g pattern {711111/2111/211/2/1}
 Group   2 Type N   : 12s5p4d2f1g contracted to 6s4p3d1f1g pattern {711111/2111/211/2/1}
 Group   3 Type H   : 5s2p1d contracted to 3s1p1d pattern {311/2/1}
 Group   4 Type O   : 12s5p4d2f1g contracted to 6s4p3d1f1g pattern {711111/2111/211/2/1}

Atom   0C    basis set group =>   1
Atom   1N    basis set group =>   2
Atom   2H    basis set group =>   3
Atom   3C    basis set group =>   1
Atom   4C    basis set group =>   1
Atom   5N    basis set group =>   2
Atom   6C    basis set group =>   1
Atom   7C    basis set group =>   1
Atom   8O    basis set group =>   4
Atom   9O    basis set group =>   4
Atom  10C    basis set group =>   1
Atom  11H    basis set group =>   3
Atom  12H    basis set group =>   3
Atom  13H    basis set group =>   3
Atom  14H    basis set group =>   3
Atom  15H    basis set group =>   3
Atom  16H    basis set group =>   3
Atom  17H    basis set group =>   3
Atom  18H    basis set group =>   3
--------------------------------------------------------------------------
[[62503,1],2]: A high-performance Open MPI point-to-point messaging module
was unable to find any relevant network interfaces:

Module: OpenFabrics (openib)
  Host: compute-1-10

Another transport will be used instead, although this may result in
lower performance.

NOTE: You can disable this warning by setting the MCA parameter
btl_base_warn_component_unused to 0.
--------------------------------------------------------------------------


           ************************************************************
           *        Program running with 4 parallel MPI-processes     *
           *              working on a common directory               *
           ************************************************************
------------------------------------------------------------------------------
                           ORCA GTO INTEGRAL CALCULATION
------------------------------------------------------------------------------

                         BASIS SET STATISTICS AND STARTUP INFO

 # of primitive gaussian shells          ...  254
 # of primitive gaussian functions       ...  532
 # of contracted shells                  ...  146
 # of contracted basis functions         ...  364
 Highest angular momentum                ...    3
 Maximum contraction depth               ...    6
 Integral package used                   ... LIBINT
 Integral threshhold            Thresh   ...  2.500e-11
 Primitive cut-off              TCut     ...  2.500e-12


------------------------------ INTEGRAL EVALUATION ----------------------------


 * One electron integrals 
 Pre-screening matrix                    ... done
 Shell pair data                         ... done (   0.004 sec)

[compute-1-10.local:04762] 3 more processes have sent help message help-mpi-btl-base.txt / btl:no-nics
[compute-1-10.local:04762] Set MCA parameter "orte_base_help_aggregate" to 0 to see all help / error messages
--------------------------------------------------------------------------
[[62481,1],2]: A high-performance Open MPI point-to-point messaging module
was unable to find any relevant network interfaces:

Module: OpenFabrics (openib)
  Host: compute-1-10

Another transport will be used instead, although this may result in
lower performance.

NOTE: You can disable this warning by setting the MCA parameter
btl_base_warn_component_unused to 0.
--------------------------------------------------------------------------


           ************************************************************
           *        Program running with 4 parallel MPI-processes     *
           *              working on a common directory               *
           ************************************************************
-------------------------------------------------------------------------------
                                 ORCA SCF
-------------------------------------------------------------------------------

------------
SCF SETTINGS
------------
Hamiltonian:
 Density Functional     Method          .... DFT(GTOs)
 Exchange Functional    Exchange        .... WB97X-D3
 Correlation Functional Correlation     .... WB97X-D3
 Gradients option       PostSCFGGA      .... off
 Hybrid DFT is turned on
   Fraction HF Exchange ScalHFX         ....  0.195728
   Scaling of DF-GGA-X  ScalDFX         ....  0.000000
   Scaling of DF-GGA-C  ScalDFC         ....  1.000000
   Scaling of DF-LDA-C  ScalLDAC        ....  1.000000
   Perturbative correction              ....  0.000000
   Density functional embedding theory  .... OFF
 Long-range corrected/Screened/Range-Separated Hybrid DFT is turned on
   Amount of maximum screened exact exchange              ....  0.804272
   Range separation parameter mu (erf(mu*r12)/r12)        ....  0.250000


General Settings:
 Integral files         IntName         .... DMimC
 Hartree-Fock type      HFTyp           .... RHF
 Total Charge           Charge          ....    1
 Multiplicity           Mult            ....    1
 Number of Electrons    NEL             ....   74
 Basis Dimension        Dim             ....  364
 Nuclear Repulsion      ENuc            ....    551.9389057923 Eh

Convergence Acceleration:
 DIIS                   CNVDIIS         .... on
   Start iteration      DIISMaxIt       ....    12
   Startup error        DIISStart       ....  0.200000
   # of expansion vecs  DIISMaxEq       ....     5
   Bias factor          DIISBfac        ....   1.050
   Max. coefficient     DIISMaxC        ....  10.000
 Newton-Raphson         CNVNR           .... off
 SOSCF                  CNVSOSCF        .... on
   Start iteration      SOSCFMaxIt      ....   150
   Startup grad/error   SOSCFStart      ....  0.003300
 Level Shifting         CNVShift        .... on
   Level shift para.    LevelShift      ....    0.2500
   Turn off err/grad.   ShiftErr        ....    0.0010
 Zerner damping         CNVZerner       .... off
 Static damping         CNVDamp         .... on
   Fraction old density DampFac         ....    0.7000
   Max. Damping (<1)    DampMax         ....    0.9800
   Min. Damping (>=0)   DampMin         ....    0.0000
   Turn off err/grad.   DampErr         ....    0.1000
 Fernandez-Rico         CNVRico         .... off

SCF Procedure:
 Maximum # iterations   MaxIter         ....   125
 SCF integral mode      SCFMode         .... Direct
   Integral package                     .... LIBINT
 Reset frequency        DirectResetFreq ....    20
 Integral Threshold     Thresh          ....  2.500e-11 Eh
 Primitive CutOff       TCut            ....  2.500e-12 Eh

Convergence Tolerance:
 Convergence Check Mode ConvCheckMode   .... Total+1el-Energy
 Convergence forced     ConvForced      .... 0
 Energy Change          TolE            ....  1.000e-08 Eh
 1-El. energy change                    ....  1.000e-05 Eh
 Orbital Gradient       TolG            ....  1.000e-05
 Orbital Rotation angle TolX            ....  1.000e-05
 DIIS Error             TolErr          ....  5.000e-07


Diagonalization of the overlap matrix:
Smallest eigenvalue                        ... 1.058e-04
Time for diagonalization                   ...    0.059 sec
Threshold for overlap eigenvalues          ... 1.000e-08
Number of eigenvalues below threshold      ... 0
Time for construction of square roots      ...    0.018 sec
Total time needed                          ...    0.078 sec

-------------------
DFT GRID GENERATION
-------------------

General Integration Accuracy     IntAcc      ...  4.340
Radial Grid Type                 RadialGrid  ... Gauss-Chebyshev
Angular Grid (max. acc.)         AngularGrid ... Lebedev-110
Angular grid pruning method      GridPruning ... 3 (G Style)
Weight generation scheme         WeightScheme... Becke
Basis function cutoff            BFCut       ...    1.0000e-11
Integration weight cutoff        WCut        ...    1.0000e-14
Grids for H and He will be reduced by one unit

# of grid points (after initial pruning)     ...  23918 (   0.0 sec)
# of grid points (after weights+screening)   ...  21972 (   0.0 sec)
nearest neighbour list constructed           ...    0.0 sec
Grid point re-assignment to atoms done       ...    0.0 sec
Grid point division into batches done        ...    0.0 sec
Reduced shell lists constructed in    0.1 sec

Total number of grid points                  ...    21972
Total number of batches                      ...      351
Average number of points per batch           ...       62
Average number of grid points per atom       ...     1156
Average number of shells per batch           ...   106.36 (72.85%)
Average number of basis functions per batch  ...   273.60 (75.16%)
Average number of large shells per batch     ...    85.92 (80.78%)
Average number of large basis fcns per batch ...   219.20 (80.12%)
Maximum spatial batch extension              ...  14.80, 18.37, 18.32 au
Average spatial batch extension              ...   0.56,  0.57,  0.66 au

Time for grid setup =    0.193 sec

------------------------------
INITIAL GUESS: MODEL POTENTIAL
------------------------------
Loading Hartree-Fock densities                     ... done
Calculating cut-offs                               ... done
Setting up the integral package                    ... done
Initializing the effective Hamiltonian             ... done
Starting the Coulomb interaction                   ... done (   0.1 sec)
Reading the grid                                   ... done
Mapping shells                                     ... done
Starting the XC term evaluation                    ... done (   0.3 sec)
  promolecular density results
     # of electrons  =     75.000516940
     EX              =    -62.756012343
     EC              =     -2.521976134
     EX+EC           =    -65.277988477
Transforming the Hamiltonian                       ... done (   0.0 sec)
Diagonalizing the Hamiltonian                      ... done (   0.0 sec)
Back transforming the eigenvectors                 ... done (   0.0 sec)
Now organizing SCF variables                       ... done
                      ------------------
                      INITIAL GUESS DONE (   0.8 sec)
                      ------------------

--------------------
CPCM SOLVATION MODEL
--------------------
CPCM parameters:
  Epsilon                                         ...       3.0000
  Refrac                                          ...       1.3300
  Rsolv                                           ...       1.3000
  Surface type                                    ...    GEPOL SES
  Epsilon function type                           ...         CPCM
Radii:
 Radius for C  used is    3.7795 Bohr (=   2.0000 Ang.)
 Radius for N  used is    3.4582 Bohr (=   1.8300 Ang.)
 Radius for H  used is    2.4566 Bohr (=   1.3000 Ang.)
 Radius for O  used is    3.2503 Bohr (=   1.7200 Ang.)
Calculating surface                               ...        done! (  0.1s)
GEPOL surface points                              ...          630
GEPOL Volume                                      ...    1122.9871
GEPOL Surface-area                                ...     616.5979
Calculating surface distance matrix               ...        done! (  0.0s)
Performing Cholesky decomposition & store         ...        done! (  0.0s)
Overall time for CPCM initialization              ...                 0.1s
--------------
SCF ITERATIONS
--------------
ITER       Energy         Delta-E        Max-DP      RMS-DP      [F,P]     Damp
               ***  Starting incremental Fock matrix formation  ***
[compute-1-10.local:04780] 3 more processes have sent help message help-mpi-btl-base.txt / btl:no-nics
[compute-1-10.local:04780] Set MCA parameter "orte_base_help_aggregate" to 0 to see all help / error messages
  0   -493.4648592824   0.000000000000 0.05082391  0.00086338  0.3291241 0.7000
  1   -493.5920641668  -0.127204884367 0.04991047  0.00067085  0.1502031 0.7000
                               ***Turning on DIIS***
  2   -493.6442422822  -0.052178115463 0.09890787  0.00123744  0.0559810 0.0000
  3   -493.7339749564  -0.089732674125 0.02988147  0.00044040  0.0761653 0.0000
  4   -493.7489253354  -0.014950379067 0.00855489  0.00011863  0.0082290 0.0000
                      *** Initiating the SOSCF procedure ***
                           *** Shutting down DIIS ***
                      *** Re-Reading the Fockian *** 
                      *** Removing any level shift *** 
ITER      Energy       Delta-E        Grad      Rot      Max-DP    RMS-DP
  5   -493.74937408  -0.0004487452  0.001408  0.001408  0.004009  0.000058
               *** Restarting incremental Fock matrix formation ***
  6   -493.74943927  -0.0000651906  0.001037  0.003068  0.003299  0.000038
  7   -493.74945942  -0.0000201456  0.000576  0.002823  0.003764  0.000044
  8   -493.74947696  -0.0000175400  0.000141  0.000401  0.000297  0.000007
  9   -493.74947779  -0.0000008344  0.000088  0.000199  0.000125  0.000004
 10   -493.74947817  -0.0000003764  0.000025  0.000141  0.000055  0.000001
 11   -493.74947819  -0.0000000242  0.000015  0.000054  0.000047  0.000001
 12   -493.74947821  -0.0000000146  0.000006  0.000020  0.000013  0.000000
 13   -493.74947821  -0.0000000027  0.000003  0.000015  0.000009  0.000000
                  ***Gradient check signals convergence***
              ***Rediagonalizing the Fockian in SOSCF/NRSCF***

               *****************************************************
               *                     SUCCESS                       *
               *           SCF CONVERGED AFTER  14 CYCLES          *
               *****************************************************

Setting up the final grid:

General Integration Accuracy     IntAcc      ...  4.670
Radial Grid Type                 RadialGrid  ... Gauss-Chebyshev
Angular Grid (max. acc.)         AngularGrid ... Lebedev-302
Angular grid pruning method      GridPruning ... 3 (G Style)
Weight generation scheme         WeightScheme... Becke
Basis function cutoff            BFCut       ...    1.0000e-11
Integration weight cutoff        WCut        ...    1.0000e-14
Grids for H and He will be reduced by one unit

# of grid points (after initial pruning)     ...  92666 (   0.0 sec)
# of grid points (after weights+screening)   ...  83750 (   0.2 sec)
nearest neighbour list constructed           ...    0.0 sec
Grid point re-assignment to atoms done       ...    0.0 sec
Grid point division into batches done        ...    0.4 sec
Reduced shell lists constructed in    0.8 sec

Total number of grid points                  ...    83750
Total number of batches                      ...     1317
Average number of points per batch           ...       63
Average number of grid points per atom       ...     4408
Average number of shells per batch           ...   101.08 (69.23%)
Average number of basis functions per batch  ...   258.69 (71.07%)
Average number of large shells per batch     ...    80.59 (79.73%)
Average number of large basis fcns per batch ...   204.60 (79.09%)
Maximum spatial batch extension              ...  12.44, 13.04, 13.06 au
Average spatial batch extension              ...   0.37,  0.38,  0.40 au

Final grid set up in    1.0 sec
Final integration                            ... done (   1.2 sec)
Change in XC energy                          ...     0.000581146
Integrated number of electrons               ...    73.999951975
Previous integrated no of electrons          ...    74.003844262

----------------
TOTAL SCF ENERGY
----------------

Total Energy       :         -493.74889706 Eh          -13435.59054 eV

Components:
Nuclear Repulsion  :          551.93890579 Eh           15019.02118 eV
Electronic Energy  :        -1045.68780286 Eh          -28454.61172 eV
One Electron Energy:        -1750.69149271 Eh          -47638.73742 eV
Two Electron Energy:          705.00368985 Eh           19184.12570 eV
CPCM Dielectric    :           -0.10383571 Eh              -2.82551 eV

Virial components:
Potential Energy   :         -985.06678242 Eh          -26805.02989 eV
Kinetic Energy     :          491.31788535 Eh           13369.43935 eV
Virial Ratio       :            2.00494794


DFT components:
N(Alpha)           :       36.999975987419 electrons
N(Beta)            :       36.999975987419 electrons
N(Total)           :       73.999951974839 electrons
E(XC)              :      -46.090539188664 Eh       
DFET-embed. en.    :        0.000000000000 Eh       
CPCM Solvation Model Properties:
Surface-charge          :           -1.02099028
Charge-correction       :            0.00160605 Eh               0.04370 eV
Free-energy (cav+disp)  :            0.00396631 Eh               0.10793 eV
Corrected G(solv)       :         -493.74332471 Eh          -13435.43891 eV

---------------
SCF CONVERGENCE
---------------

  Last Energy change         ...   -6.4915e-10  Tolerance :   1.0000e-08
  Last MAX-Density change    ...    3.7070e-06  Tolerance :   1.0000e-07
  Last RMS-Density change    ...    6.8293e-08  Tolerance :   5.0000e-09
  Last Orbital Gradient      ...    1.0503e-06  Tolerance :   1.0000e-05
  Last Orbital Rotation      ...    9.0506e-06  Tolerance :   1.0000e-05

             **** THE GBW FILE WAS UPDATED (DMimC.gbw) ****
             **** DENSITY FILE WAS UPDATED (DMimC.scfp) ****
             **** ENERGY FILE WAS UPDATED (DMimC.en.tmp) ****
             **** THE GBW FILE WAS UPDATED (DMimC.gbw) ****
             **** DENSITY FILE WAS UPDATED (DMimC.scfp) ****
----------------
ORBITAL ENERGIES
----------------

  NO   OCC          E(Eh)            E(eV) 
   0   2.0000     -19.249344      -523.8013 
   1   2.0000     -19.230648      -523.2925 
   2   2.0000     -14.685990      -399.6261 
   3   2.0000     -14.657677      -398.8557 
   4   2.0000     -10.523247      -286.3521 
   5   2.0000     -10.455080      -284.4972 
   6   2.0000     -10.452829      -284.4359 
   7   2.0000     -10.451512      -284.4001 
   8   2.0000     -10.418342      -283.4975 
   9   2.0000     -10.400159      -283.0027 
  10   2.0000      -1.335802       -36.3490 
  11   2.0000      -1.233067       -33.5535 
  12   2.0000      -1.216384       -33.0995 
  13   2.0000      -1.087318       -29.5874 
  14   2.0000      -1.033378       -28.1196 
  15   2.0000      -0.999235       -27.1906 
  16   2.0000      -0.924730       -25.1632 
  17   2.0000      -0.881828       -23.9958 
  18   2.0000      -0.860762       -23.4225 
  19   2.0000      -0.832269       -22.6472 
  20   2.0000      -0.760758       -20.7013 
  21   2.0000      -0.730057       -19.8659 
  22   2.0000      -0.698377       -19.0038 
  23   2.0000      -0.683506       -18.5992 
  24   2.0000      -0.672699       -18.3051 
  25   2.0000      -0.657341       -17.8871 
  26   2.0000      -0.613641       -16.6980 
  27   2.0000      -0.596042       -16.2191 
  28   2.0000      -0.588770       -16.0213 
  29   2.0000      -0.577103       -15.7038 
  30   2.0000      -0.568429       -15.4677 
  31   2.0000      -0.558892       -15.2082 
  32   2.0000      -0.553344       -15.0572 
  33   2.0000      -0.471808       -12.8385 
  34   2.0000      -0.429057       -11.6752 
  35   2.0000      -0.397876       -10.8268 
  36   2.0000      -0.383458       -10.4344 
  37   0.0000      -0.133501        -3.6327 
  38   0.0000      -0.027438        -0.7466 
  39   0.0000       0.030521         0.8305 
  40   0.0000       0.073452         1.9987 
  41   0.0000       0.075213         2.0466 
  42   0.0000       0.082787         2.2527 
  43   0.0000       0.088436         2.4065 
  44   0.0000       0.093546         2.5455 
  45   0.0000       0.102701         2.7946 
  46   0.0000       0.113692         3.0937 
  47   0.0000       0.127818         3.4781 
  48   0.0000       0.133631         3.6363 
  49   0.0000       0.147902         4.0246 
  50   0.0000       0.157741         4.2923 
  51   0.0000       0.159703         4.3457 
  52   0.0000       0.164729         4.4825 
  53   0.0000       0.172725         4.7001 
  54   0.0000       0.183622         4.9966 
  55   0.0000       0.203287         5.5317 
  56   0.0000       0.229109         6.2344 
  57   0.0000       0.235988         6.4216 
  58   0.0000       0.240665         6.5488 
  59   0.0000       0.260935         7.1004 
  60   0.0000       0.265636         7.2283 
  61   0.0000       0.269631         7.3370 
  62   0.0000       0.277538         7.5522 
  63   0.0000       0.285439         7.7672 
  64   0.0000       0.305109         8.3024 
  65   0.0000       0.315729         8.5914 
  66   0.0000       0.330732         8.9997 
  67   0.0000       0.338146         9.2014 
  68   0.0000       0.346197         9.4205 
  69   0.0000       0.355418         9.6714 
  70   0.0000       0.364061         9.9066 
  71   0.0000       0.368952        10.0397 
  72   0.0000       0.383830        10.4445 
  73   0.0000       0.386038        10.5046 
  74   0.0000       0.400154        10.8888 
  75   0.0000       0.406351        11.0574 
  76   0.0000       0.422718        11.5027 
  77   0.0000       0.425828        11.5874 
  78   0.0000       0.437969        11.9177 
  79   0.0000       0.453218        12.3327 
  80   0.0000       0.460494        12.5307 
  81   0.0000       0.465871        12.6770 
  82   0.0000       0.468063        12.7366 
  83   0.0000       0.486043        13.2259 
  84   0.0000       0.492149        13.3921 
  85   0.0000       0.500733        13.6256 
  86   0.0000       0.514917        14.0116 
  87   0.0000       0.516969        14.0675 
  88   0.0000       0.526284        14.3209 
  89   0.0000       0.529861        14.4183 
  90   0.0000       0.548994        14.9389 
  91   0.0000       0.561202        15.2711 
  92   0.0000       0.576532        15.6882 
  93   0.0000       0.596654        16.2358 
  94   0.0000       0.601215        16.3599 
  95   0.0000       0.620054        16.8725 
  96   0.0000       0.630066        17.1450 
  97   0.0000       0.631287        17.1782 
  98   0.0000       0.653946        17.7948 
  99   0.0000       0.663892        18.0654 
 100   0.0000       0.683175        18.5901 
 101   0.0000       0.702252        19.1093 
 102   0.0000       0.706505        19.2250 
 103   0.0000       0.725135        19.7319 
 104   0.0000       0.740826        20.1589 
 105   0.0000       0.748350        20.3636 
 106   0.0000       0.757835        20.6217 
 107   0.0000       0.793114        21.5817 
 108   0.0000       0.802266        21.8308 
 109   0.0000       0.852171        23.1888 
 110   0.0000       0.868700        23.6385 
 111   0.0000       0.875055        23.8115 
 112   0.0000       0.884282        24.0625 
 113   0.0000       0.902644        24.5622 
 114   0.0000       0.913889        24.8682 
 115   0.0000       0.934505        25.4292 
 116   0.0000       0.948217        25.8023 
 117   0.0000       0.961962        26.1763 
 118   0.0000       0.970599        26.4113 
 119   0.0000       0.978731        26.6326 
 120   0.0000       0.994254        27.0550 
 121   0.0000       1.010940        27.5091 
 122   0.0000       1.028198        27.9787 
 123   0.0000       1.055864        28.7315 
 124   0.0000       1.071613        29.1601 
 125   0.0000       1.095630        29.8136 
 126   0.0000       1.112051        30.2605 
 127   0.0000       1.131675        30.7944 
 128   0.0000       1.142740        31.0955 
 129   0.0000       1.172454        31.9041 
 130   0.0000       1.177902        32.0523 
 131   0.0000       1.193417        32.4745 
 132   0.0000       1.241135        33.7730 
 133   0.0000       1.265849        34.4455 
 134   0.0000       1.283634        34.9295 
 135   0.0000       1.346972        36.6530 
 136   0.0000       1.364217        37.1222 
 137   0.0000       1.378518        37.5114 
 138   0.0000       1.397253        38.0212 
 139   0.0000       1.402136        38.1541 
 140   0.0000       1.428780        38.8791 
 141   0.0000       1.437406        39.1138 
 142   0.0000       1.444949        39.3191 
 143   0.0000       1.465685        39.8833 
 144   0.0000       1.496918        40.7332 
 145   0.0000       1.507776        41.0287 
 146   0.0000       1.509211        41.0677 
 147   0.0000       1.535617        41.7863 
 148   0.0000       1.540162        41.9099 
 149   0.0000       1.551009        42.2051 
 150   0.0000       1.553852        42.2825 
 151   0.0000       1.564850        42.5817 
 152   0.0000       1.568467        42.6802 
 153   0.0000       1.583186        43.0807 
 154   0.0000       1.597029        43.4574 
 155   0.0000       1.604742        43.6672 
 156   0.0000       1.624930        44.2166 
 157   0.0000       1.631909        44.4065 
 158   0.0000       1.652070        44.9551 
 159   0.0000       1.663274        45.2600 
 160   0.0000       1.670519        45.4571 
 161   0.0000       1.692557        46.0568 
 162   0.0000       1.700403        46.2703 
 163   0.0000       1.743367        47.4394 
 164   0.0000       1.772085        48.2209 
 165   0.0000       1.796334        48.8807 
 166   0.0000       1.815327        49.3976 
 167   0.0000       1.839459        50.0542 
 168   0.0000       1.858881        50.5827 
 169   0.0000       1.871488        50.9258 
 170   0.0000       1.896316        51.6014 
 171   0.0000       1.924204        52.3602 
 172   0.0000       1.950867        53.0858 
 173   0.0000       1.955560        53.2135 
 174   0.0000       1.963824        53.4384 
 175   0.0000       1.984462        53.9999 
 176   0.0000       1.993548        54.2472 
 177   0.0000       2.013225        54.7826 
 178   0.0000       2.039865        55.5076 
 179   0.0000       2.062782        56.1311 
 180   0.0000       2.074478        56.4494 
 181   0.0000       2.082315        56.6627 
 182   0.0000       2.098842        57.1124 
 183   0.0000       2.108800        57.3834 
 184   0.0000       2.122241        57.7491 
 185   0.0000       2.153374        58.5963 
 186   0.0000       2.168098        58.9969 
 187   0.0000       2.187086        59.5136 
 188   0.0000       2.202386        59.9300 
 189   0.0000       2.244853        61.0856 
 190   0.0000       2.254487        61.3477 
 191   0.0000       2.296472        62.4902 
 192   0.0000       2.323125        63.2155 
 193   0.0000       2.327967        63.3472 
 194   0.0000       2.334136        63.5151 
 195   0.0000       2.362937        64.2988 
 196   0.0000       2.375377        64.6373 
 197   0.0000       2.387470        64.9664 
 198   0.0000       2.399663        65.2982 
 199   0.0000       2.411793        65.6282 
 200   0.0000       2.420884        65.8756 
 201   0.0000       2.448772        66.6345 
 202   0.0000       2.477301        67.4108 
 203   0.0000       2.496911        67.9444 
 204   0.0000       2.523595        68.6705 
 205   0.0000       2.534058        68.9552 
 206   0.0000       2.548343        69.3439 
 207   0.0000       2.570556        69.9484 
 208   0.0000       2.579850        70.2013 
 209   0.0000       2.587054        70.3973 
 210   0.0000       2.601581        70.7926 
 211   0.0000       2.605263        70.8928 
 212   0.0000       2.634251        71.6816 
 213   0.0000       2.658635        72.3451 
 214   0.0000       2.673062        72.7377 
 215   0.0000       2.685401        73.0735 
 216   0.0000       2.692089        73.2555 
 217   0.0000       2.749455        74.8165 
 218   0.0000       2.765430        75.2512 
 219   0.0000       2.778456        75.6056 
 220   0.0000       2.809983        76.4635 
 221   0.0000       2.824002        76.8450 
 222   0.0000       2.839179        77.2580 
 223   0.0000       2.843416        77.3733 
 224   0.0000       2.854702        77.6804 
 225   0.0000       2.899846        78.9088 
 226   0.0000       2.920438        79.4692 
 227   0.0000       2.929666        79.7203 
 228   0.0000       2.954735        80.4024 
 229   0.0000       2.958149        80.4953 
 230   0.0000       2.977662        81.0263 
 231   0.0000       2.990105        81.3649 
 232   0.0000       3.024942        82.3129 
 233   0.0000       3.032768        82.5258 
 234   0.0000       3.040582        82.7385 
 235   0.0000       3.067044        83.4585 
 236   0.0000       3.071981        83.5928 
 237   0.0000       3.090881        84.1072 
 238   0.0000       3.109856        84.6235 
 239   0.0000       3.123309        84.9896 
 240   0.0000       3.126371        85.0729 
 241   0.0000       3.140618        85.4606 
 242   0.0000       3.143555        85.5405 
 243   0.0000       3.154392        85.8354 
 244   0.0000       3.176793        86.4449 
 245   0.0000       3.207333        87.2760 
 246   0.0000       3.224710        87.7488 
 247   0.0000       3.231420        87.9314 
 248   0.0000       3.242130        88.2229 
 249   0.0000       3.258059        88.6563 
 250   0.0000       3.271283        89.0161 
 251   0.0000       3.287015        89.4442 
 252   0.0000       3.304987        89.9333 
 253   0.0000       3.320409        90.3529 
 254   0.0000       3.323330        90.4324 
 255   0.0000       3.329117        90.5899 
 256   0.0000       3.354918        91.2920 
 257   0.0000       3.372744        91.7770 
 258   0.0000       3.389965        92.2456 
 259   0.0000       3.405327        92.6637 
 260   0.0000       3.432172        93.3942 
 261   0.0000       3.439785        93.6013 
 262   0.0000       3.460602        94.1678 
 263   0.0000       3.466677        94.3331 
 264   0.0000       3.497238        95.1647 
 265   0.0000       3.506351        95.4127 
 266   0.0000       3.526591        95.9634 
 267   0.0000       3.545307        96.4727 
 268   0.0000       3.569717        97.1369 
 269   0.0000       3.581222        97.4500 
 270   0.0000       3.603494        98.0561 
 271   0.0000       3.609654        98.2237 
 272   0.0000       3.638221        99.0010 
 273   0.0000       3.662111        99.6511 
 274   0.0000       3.684641       100.2642 
 275   0.0000       3.718519       101.1860 
 276   0.0000       3.758483       102.2735 
 277   0.0000       3.770873       102.6107 
 278   0.0000       3.800460       103.4158 
 279   0.0000       3.836023       104.3835 
 280   0.0000       3.860181       105.0409 
 281   0.0000       3.897642       106.0602 
 282   0.0000       3.949678       107.4762 
 283   0.0000       3.990676       108.5918 
 284   0.0000       4.004703       108.9735 
 285   0.0000       4.046795       110.1189 
 286   0.0000       4.096411       111.4690 
 287   0.0000       4.129355       112.3655 
 288   0.0000       4.150983       112.9540 
 289   0.0000       4.204511       114.4106 
 290   0.0000       4.222636       114.9038 
 291   0.0000       4.237205       115.3002 
 292   0.0000       4.260175       115.9253 
 293   0.0000       4.261814       115.9699 
 294   0.0000       4.306607       117.1887 
 295   0.0000       4.345412       118.2447 
 296   0.0000       4.351550       118.4117 
 297   0.0000       4.379216       119.1645 
 298   0.0000       4.443625       120.9172 
 299   0.0000       4.487489       122.1108 
 300   0.0000       4.578019       124.5742 
 301   0.0000       4.645220       126.4029 
 302   0.0000       4.708312       128.1197 
 303   0.0000       4.759979       129.5256 
 304   0.0000       4.770857       129.8216 
 305   0.0000       4.837773       131.6425 
 306   0.0000       4.861903       132.2991 
 307   0.0000       4.904058       133.4462 
 308   0.0000       4.935385       134.2987 
 309   0.0000       4.979112       135.4885 
 310   0.0000       5.031166       136.9050 
 311   0.0000       5.078376       138.1896 
 312   0.0000       5.125412       139.4696 
 313   0.0000       5.137914       139.8097 
 314   0.0000       5.190493       141.2405 
 315   0.0000       5.226349       142.2162 
 316   0.0000       5.234378       142.4347 
 317   0.0000       5.250049       142.8611 
 318   0.0000       5.253337       142.9506 
 319   0.0000       5.266600       143.3115 
 320   0.0000       5.286925       143.8646 
 321   0.0000       5.306621       144.4005 
 322   0.0000       5.354430       145.7014 
 323   0.0000       5.369523       146.1121 
 324   0.0000       5.372785       146.2009 
 325   0.0000       5.444359       148.1485 
 326   0.0000       5.489157       149.3675 
 327   0.0000       5.521026       150.2347 
 328   0.0000       5.546666       150.9324 
 329   0.0000       5.605271       152.5272 
 330   0.0000       5.635213       153.3419 
 331   0.0000       5.647303       153.6709 
 332   0.0000       5.671136       154.3195 
 333   0.0000       5.736156       156.0887 
 334   0.0000       5.856972       159.3763 
 335   0.0000       5.904620       160.6729 
 336   0.0000       5.969975       162.4513 
 337   0.0000       5.982182       162.7835 
 338   0.0000       6.045820       164.5151 
 339   0.0000       6.060001       164.9010 
 340   0.0000       6.201687       168.7565 
 341   0.0000       6.267430       170.5454 
 342   0.0000       6.390266       173.8880 
 343   0.0000       6.442943       175.3214 
 344   0.0000       6.490840       176.6247 
 345   0.0000       6.564921       178.6406 
 346   0.0000       6.631278       180.4463 
 347   0.0000       6.849934       186.3962 
 348   0.0000       6.888702       187.4511 
 349   0.0000       6.895823       187.6449 
 350   0.0000       7.009818       190.7468 
 351   0.0000       7.160251       194.8403 
 352   0.0000       7.260689       197.5734 
 353   0.0000       7.300819       198.6654 
 354   0.0000      22.302325       606.8771 
 355   0.0000      22.345684       608.0570 
 356   0.0000      22.427193       610.2750 
 357   0.0000      22.782449       619.9419 
 358   0.0000      23.120703       629.1463 
 359   0.0000      23.309177       634.2749 
 360   0.0000      32.564002       886.1116 
 361   0.0000      32.877802       894.6505 
 362   0.0000      43.927623      1195.3314 
 363   0.0000      43.945237      1195.8107 

                    ********************************
                    * MULLIKEN POPULATION ANALYSIS *
                    ********************************

-----------------------
MULLIKEN ATOMIC CHARGES
-----------------------
   0 C :   -0.381211
   1 N :    0.060709
   2 H :    0.372874
   3 C :   -0.133750
   4 C :   -0.033129
   5 N :    0.091913
   6 C :    0.180813
   7 C :    0.319331
   8 O :   -0.444259
   9 O :   -0.542926
  10 C :   -0.314829
  11 H :    0.224028
  12 H :    0.209170
  13 H :    0.241190
  14 H :    0.262788
  15 H :    0.265172
  16 H :    0.190107
  17 H :    0.215931
  18 H :    0.216078
Sum of atomic charges:    1.0000000

--------------------------------
MULLIKEN REDUCED ORBITAL CHARGES
--------------------------------
  0 C s       :     3.319502  s :     3.319502
      pz      :     0.957929  p :     2.988684
      px      :     0.855237
      py      :     1.175518
      dz2     :     0.020292  d :     0.067500
      dxz     :     0.013997
      dyz     :     0.006949
      dx2y2   :     0.010010
      dxy     :     0.016251
      f0      :     0.000769  f :     0.005525
      f+1     :     0.001621
      f-1     :     0.000050
      f+2     :     0.000912
      f-2     :     0.000777
      f+3     :     0.000951
      f-3     :     0.000445
  1 N s       :     3.288962  s :     3.288962
      pz      :     1.244413  p :     3.543017
      px      :     1.142544
      py      :     1.156060
      dz2     :     0.017697  d :     0.102973
      dxz     :     0.014817
      dyz     :     0.019489
      dx2y2   :     0.024406
      dxy     :     0.026564
      f0      :     0.000408  f :     0.004339
      f+1     :     0.000878
      f-1     :     0.000176
      f+2     :     0.000202
      f-2     :     0.000995
      f+3     :     0.000630
      f-3     :     0.001051
  2 H s       :     0.592613  s :     0.592613
      pz      :     0.016746  p :     0.034513
      px      :     0.011991
      py      :     0.005776
  3 C s       :     3.243143  s :     3.243143
      pz      :     1.003701  p :     2.789733
      px      :     0.854483
      py      :     0.931550
      dz2     :     0.006980  d :     0.090288
      dxz     :     0.020436
      dyz     :     0.011222
      dx2y2   :     0.020782
      dxy     :     0.030868
      f0      :     0.001825  f :     0.010586
      f+1     :     0.000965
      f-1     :     0.001269
      f+2     :     0.000336
      f-2     :     0.001512
      f+3     :     0.002449
      f-3     :     0.002230
  4 C s       :     3.204098  s :     3.204098
      pz      :     0.932415  p :     2.720481
      px      :     1.029830
      py      :     0.758236
      dz2     :     0.006983  d :     0.097743
      dxz     :     0.013914
      dyz     :     0.021803
      dx2y2   :     0.026748
      dxy     :     0.028294
      f0      :     0.001952  f :     0.010807
      f+1     :     0.000935
      f-1     :     0.001267
      f+2     :     0.001697
      f-2     :     0.000226
      f+3     :     0.002500
      f-3     :     0.002230
  5 N s       :     3.434070  s :     3.434070
      pz      :     1.232376  p :     3.365440
      px      :     1.053489
      py      :     1.079575
      dz2     :     0.006181  d :     0.102953
      dxz     :     0.019828
      dyz     :     0.017085
      dx2y2   :     0.029899
      dxy     :     0.029960
      f0      :     0.000988  f :     0.005624
      f+1     :     0.000575
      f-1     :     0.000574
      f+2     :     0.000683
      f-2     :     0.000484
      f+3     :     0.001464
      f-3     :     0.000857
  6 C s       :     3.157466  s :     3.157466
      pz      :     0.798102  p :     2.488461
      px      :     0.801782
      py      :     0.888577
      dz2     :     0.006281  d :     0.156295
      dxz     :     0.038339
      dyz     :     0.023466
      dx2y2   :     0.040215
      dxy     :     0.047995
      f0      :     0.002474  f :     0.016964
      f+1     :     0.001313
      f-1     :     0.001310
      f+2     :     0.001359
      f-2     :     0.002063
      f+3     :     0.004155
      f-3     :     0.004290
  7 C s       :     2.971183  s :     2.971183
      pz      :     0.824442  p :     2.422148
      px      :     0.777739
      py      :     0.819967
      dz2     :     0.012495  d :     0.263642
      dxz     :     0.075455
      dyz     :     0.016049
      dx2y2   :     0.079912
      dxy     :     0.079732
      f0      :     0.002615  f :     0.023696
      f+1     :     0.001615
      f-1     :     0.001324
      f+2     :     0.002419
      f-2     :     0.002540
      f+3     :     0.005461
      f-3     :     0.007721
  8 O s       :     3.837044  s :     3.837044
      pz      :     1.461407  p :     4.574977
      px      :     1.354142
      py      :     1.759429
      dz2     :     0.002909  d :     0.030394
      dxz     :     0.009502
      dyz     :     0.001276
      dx2y2   :     0.008490
      dxy     :     0.008217
      f0      :     0.000189  f :     0.001844
      f+1     :     0.000193
      f-1     :     0.000035
      f+2     :     0.000333
      f-2     :     0.000124
      f+3     :     0.000463
      f-3     :     0.000507
  9 O s       :     3.868527  s :     3.868527
      pz      :     1.528314  p :     4.647250
      px      :     1.633606
      py      :     1.485331
      dz2     :     0.003259  d :     0.025709
      dxz     :     0.002706
      dyz     :     0.004926
      dx2y2   :     0.005236
      dxy     :     0.009582
      f0      :     0.000118  f :     0.001440
      f+1     :     0.000098
      f-1     :     0.000131
      f+2     :     0.000042
      f-2     :     0.000278
      f+3     :     0.000440
      f-3     :     0.000333
 10 C s       :     3.289331  s :     3.289331
      pz      :     1.141510  p :     2.953746
      px      :     0.818047
      py      :     0.994190
      dz2     :     0.011301  d :     0.066313
      dxz     :     0.010339
      dyz     :     0.012538
      dx2y2   :     0.010925
      dxy     :     0.021210
      f0      :     0.000575  f :     0.005439
      f+1     :     0.000373
      f-1     :     0.001156
      f+2     :     0.000152
      f-2     :     0.000749
      f+3     :     0.001079
      f-3     :     0.001354
 11 H s       :     0.755737  s :     0.755737
      pz      :     0.003424  p :     0.020235
      px      :     0.007014
      py      :     0.009797
 12 H s       :     0.770289  s :     0.770289
      pz      :     0.012778  p :     0.020541
      px      :     0.003393
      py      :     0.004371
 13 H s       :     0.736683  s :     0.736683
      pz      :     0.003407  p :     0.022128
      px      :     0.007565
      py      :     0.011155
 14 H s       :     0.715445  s :     0.715445
      pz      :     0.004722  p :     0.021766
      px      :     0.003213
      py      :     0.013830
 15 H s       :     0.713623  s :     0.713623
      pz      :     0.003921  p :     0.021206
      px      :     0.010659
      py      :     0.006625
 16 H s       :     0.789049  s :     0.789049
      pz      :     0.004225  p :     0.020844
      px      :     0.011065
      py      :     0.005554
 17 H s       :     0.762749  s :     0.762749
      pz      :     0.008952  p :     0.021320
      px      :     0.003126
      py      :     0.009242
 18 H s       :     0.763022  s :     0.763022
      pz      :     0.011256  p :     0.020900
      px      :     0.002993
      py      :     0.006651


                     *******************************
                     * LOEWDIN POPULATION ANALYSIS *
                     *******************************

----------------------
LOEWDIN ATOMIC CHARGES
----------------------
   0 C :   -0.222095
   1 N :    0.308512
   2 H :    0.311548
   3 C :   -0.085828
   4 C :   -0.055221
   5 N :    0.351521
   6 C :   -0.027172
   7 C :   -0.580021
   8 O :    0.030185
   9 O :   -0.140728
  10 C :   -0.210616
  11 H :    0.161827
  12 H :    0.158052
  13 H :    0.160318
  14 H :    0.182220
  15 H :    0.182995
  16 H :    0.149650
  17 H :    0.162260
  18 H :    0.162593

-------------------------------
LOEWDIN REDUCED ORBITAL CHARGES
-------------------------------
  0 C s       :     2.847350  s :     2.847350
      pz      :     1.000102  p :     3.051269
      px      :     0.924154
      py      :     1.127014
      dz2     :     0.082143  d :     0.286149
      dxz     :     0.070288
      dyz     :     0.021568
      dx2y2   :     0.035203
      dxy     :     0.076948
      f0      :     0.003707  f :     0.037326
      f+1     :     0.009231
      f-1     :     0.002342
      f+2     :     0.008454
      f-2     :     0.005710
      f+3     :     0.004936
      f-3     :     0.002947
  1 N s       :     2.843018  s :     2.843018
      pz      :     1.178408  p :     3.490781
      px      :     1.152929
      py      :     1.159445
      dz2     :     0.056928  d :     0.333260
      dxz     :     0.054797
      dyz     :     0.057022
      dx2y2   :     0.068962
      dxy     :     0.095551
      f0      :     0.001829  f :     0.024429
      f+1     :     0.003586
      f-1     :     0.001653
      f+2     :     0.001825
      f-2     :     0.005563
      f+3     :     0.003750
      f-3     :     0.006222
  2 H s       :     0.593162  s :     0.593162
      pz      :     0.048118  p :     0.095290
      px      :     0.031469
      py      :     0.015703
  3 C s       :     2.786055  s :     2.786055
      pz      :     0.924493  p :     2.846345
      px      :     0.987075
      py      :     0.934776
      dz2     :     0.031276  d :     0.393234
      dxz     :     0.068212
      dyz     :     0.031526
      dx2y2   :     0.129328
      dxy     :     0.132892
      f0      :     0.004796  f :     0.060195
      f+1     :     0.005489
      f-1     :     0.004958
      f+2     :     0.003293
      f-2     :     0.009894
      f+3     :     0.016130
      f-3     :     0.015634
  4 C s       :     2.786091  s :     2.786091
      pz      :     0.878862  p :     2.811619
      px      :     1.075174
      py      :     0.857583
      dz2     :     0.034722  d :     0.396453
      dxz     :     0.034057
      dyz     :     0.069083
      dx2y2   :     0.123982
      dxy     :     0.134608
      f0      :     0.004748  f :     0.061058
      f+1     :     0.004224
      f-1     :     0.006380
      f+2     :     0.011656
      f-2     :     0.002461
      f+3     :     0.018496
      f-3     :     0.013093
  5 N s       :     2.857443  s :     2.857443
      pz      :     1.093181  p :     3.428854
      px      :     1.185221
      py      :     1.150452
      dz2     :     0.020710  d :     0.337604
      dxz     :     0.054748
      dyz     :     0.047022
      dx2y2   :     0.115150
      dxy     :     0.099973
      f0      :     0.001435  f :     0.024579
      f+1     :     0.002092
      f-1     :     0.001754
      f+2     :     0.003785
      f-2     :     0.002534
      f+3     :     0.008974
      f-3     :     0.004005
  6 C s       :     2.735182  s :     2.735182
      pz      :     0.755221  p :     2.601162
      px      :     0.890184
      py      :     0.955757
      dz2     :     0.053887  d :     0.599194
      dxz     :     0.100005
      dyz     :     0.067791
      dx2y2   :     0.177641
      dxy     :     0.199870
      f0      :     0.007042  f :     0.091634
      f+1     :     0.007623
      f-1     :     0.006309
      f+2     :     0.009998
      f-2     :     0.011482
      f+3     :     0.024816
      f-3     :     0.024365
  7 C s       :     2.762939  s :     2.762939
      pz      :     0.792717  p :     2.695928
      px      :     0.976695
      py      :     0.926516
      dz2     :     0.071516  d :     0.970931
      dxz     :     0.195567
      dyz     :     0.064254
      dx2y2   :     0.315949
      dxy     :     0.323645
      f0      :     0.008829  f :     0.150223
      f+1     :     0.011310
      f-1     :     0.008294
      f+2     :     0.017783
      f-2     :     0.017689
      f+3     :     0.037781
      f-3     :     0.048537
  8 O s       :     3.407503  s :     3.407503
      pz      :     1.372628  p :     4.488184
      px      :     1.502574
      py      :     1.612983
      dz2     :     0.008084  d :     0.067993
      dxz     :     0.015545
      dyz     :     0.001451
      dx2y2   :     0.022640
      dxy     :     0.020273
      f0      :     0.000526  f :     0.006134
      f+1     :     0.000902
      f-1     :     0.000149
      f+2     :     0.000820
      f-2     :     0.000225
      f+3     :     0.001718
      f-3     :     0.001794
  9 O s       :     3.501691  s :     3.501691
      pz      :     1.461172  p :     4.584723
      px      :     1.620294
      py      :     1.503257
      dz2     :     0.007066  d :     0.050455
      dxz     :     0.005001
      dyz     :     0.006732
      dx2y2   :     0.010647
      dxy     :     0.021008
      f0      :     0.000308  f :     0.003860
      f+1     :     0.000320
      f-1     :     0.000390
      f+2     :     0.000091
      f-2     :     0.000593
      f+3     :     0.001202
      f-3     :     0.000955
 10 C s       :     2.846234  s :     2.846234
      pz      :     1.117157  p :     3.052471
      px      :     0.906076
      py      :     1.029238
      dz2     :     0.048529  d :     0.275148
      dxz     :     0.032104
      dyz     :     0.054300
      dx2y2   :     0.049044
      dxy     :     0.091171
      f0      :     0.003524  f :     0.036764
      f+1     :     0.005087
      f-1     :     0.003682
      f+2     :     0.003616
      f-2     :     0.004646
      f+3     :     0.007103
      f-3     :     0.009106
 11 H s       :     0.776075  s :     0.776075
      pz      :     0.011492  p :     0.062098
      px      :     0.019537
      py      :     0.031069
 12 H s       :     0.780162  s :     0.780162
      pz      :     0.036886  p :     0.061786
      px      :     0.011520
      py      :     0.013380
 13 H s       :     0.773080  s :     0.773080
      pz      :     0.010605  p :     0.066603
      px      :     0.021995
      py      :     0.034003
 14 H s       :     0.750923  s :     0.750923
      pz      :     0.014190  p :     0.066856
      px      :     0.009924
      py      :     0.042742
 15 H s       :     0.751370  s :     0.751370
      pz      :     0.011843  p :     0.065635
      px      :     0.032469
      py      :     0.021324
 16 H s       :     0.789347  s :     0.789347
      pz      :     0.012956  p :     0.061003
      px      :     0.029632
      py      :     0.018414
 17 H s       :     0.775061  s :     0.775061
      pz      :     0.027656  p :     0.062679
      px      :     0.009167
      py      :     0.025856
 18 H s       :     0.774905  s :     0.774905
      pz      :     0.034799  p :     0.062502
      px      :     0.009042
      py      :     0.018660


                      *****************************
                      * MAYER POPULATION ANALYSIS *
                      *****************************

  NA   - Mulliken gross atomic population
  ZA   - Total nuclear charge
  QA   - Mulliken gross atomic charge
  VA   - Mayer's total valence
  BVA  - Mayer's bonded valence
  FA   - Mayer's free valence

  ATOM       NA         ZA         QA         VA         BVA        FA
  0 C      6.3812     6.0000    -0.3812     3.7216     3.7216    -0.0000
  1 N      6.9393     7.0000     0.0607     3.7737     3.7737    -0.0000
  2 H      0.6271     1.0000     0.3729     0.8527     0.8527    -0.0000
  3 C      6.1338     6.0000    -0.1338     3.8876     3.8876     0.0000
  4 C      6.0331     6.0000    -0.0331     3.8527     3.8527     0.0000
  5 N      6.9081     7.0000     0.0919     3.6404     3.6404    -0.0000
  6 C      5.8192     6.0000     0.1808     3.7475     3.7475    -0.0000
  7 C      5.6807     6.0000     0.3193     4.4236     4.4236    -0.0000
  8 O      8.4443     8.0000    -0.4443     2.0137     2.0137    -0.0000
  9 O      8.5429     8.0000    -0.5429     1.9286     1.9286    -0.0000
 10 C      6.3148     6.0000    -0.3148     3.7669     3.7669    -0.0000
 11 H      0.7760     1.0000     0.2240     0.9419     0.9419    -0.0000
 12 H      0.7908     1.0000     0.2092     0.9493     0.9493     0.0000
 13 H      0.7588     1.0000     0.2412     0.9640     0.9640    -0.0000
 14 H      0.7372     1.0000     0.2628     0.9382     0.9382     0.0000
 15 H      0.7348     1.0000     0.2652     0.9309     0.9309     0.0000
 16 H      0.8099     1.0000     0.1901     0.9489     0.9489    -0.0000
 17 H      0.7841     1.0000     0.2159     0.9588     0.9588    -0.0000
 18 H      0.7839     1.0000     0.2161     0.9600     0.9600    -0.0000

  Mayer bond orders larger than 0.100000
B(  0-C ,  1-N ) :   0.8748 B(  0-C , 11-H ) :   0.9309 B(  0-C , 12-H ) :   0.9389 
B(  0-C , 13-H ) :   0.9239 B(  1-N ,  2-H ) :   0.7972 B(  1-N ,  3-C ) :   0.9987 
B(  1-N ,  6-C ) :   1.0028 B(  3-C ,  4-C ) :   1.8314 B(  3-C , 14-H ) :   0.9130 
B(  4-C ,  5-N ) :   1.0295 B(  4-C , 15-H ) :   0.9085 B(  5-N ,  6-C ) :   1.6416 
B(  5-N , 10-C ) :   0.8783 B(  6-C ,  7-C ) :   0.8739 B(  7-C ,  8-O ) :   1.8116 
B(  7-C ,  9-O ) :   1.7203 B( 10-C , 16-H ) :   0.9351 B( 10-C , 17-H ) :   0.9278 
B( 10-C , 18-H ) :   0.9288 

-------
TIMINGS
-------

Total SCF time: 0 days 0 hours 9 min 19 sec 

Total time                  ....     559.457 sec
Sum of individual times     ....     558.788 sec  ( 99.9%)

Fock matrix formation       ....     556.081 sec  ( 99.4%)
  XC integration            ....       5.858 sec  (  1.1% of F)
    Basis function eval.    ....       1.336 sec  ( 22.8% of XC)
    Density eval.           ....       1.419 sec  ( 24.2% of XC)
    XC-Functional eval.     ....       0.504 sec  (  8.6% of XC)
    XC-Potential eval.      ....       2.443 sec  ( 41.7% of XC)
Diagonalization             ....       0.350 sec  (  0.1%)
Density matrix formation    ....       0.025 sec  (  0.0%)
Population analysis         ....       0.042 sec  (  0.0%)
Initial guess               ....       0.644 sec  (  0.1%)
Orbital Transformation      ....       0.000 sec  (  0.0%)
Orbital Orthonormalization  ....       0.000 sec  (  0.0%)
DIIS solution               ....       0.109 sec  (  0.0%)
SOSCF solution              ....       0.378 sec  (  0.1%)
Grid generation             ....       1.160 sec  (  0.2%)


-------------------------------------------------------------------------------
                          DFT DISPERSION CORRECTION                            
                                                                               
                              DFTD3 V3.1  Rev 1                                
                              USING zero damping                               
-------------------------------------------------------------------------------
The omegaB97X-D3 functional is recognized. Fit by Chai et al.
Active option DFTDOPT                   ...         3   

molecular C6(AA) [au] = 3447.401207 


            DFT-D V3
 parameters
 s6 scaling factor         :     1.0000 
 rs6 scaling factor        :     1.2810 
 s8 scaling factor         :     1.0000 
 rs8 scaling factor        :     1.0940 
 Damping factor alpha6     :    14.0000 
 Damping factor alpha8     :    16.0000 
 ad hoc parameters k1-k3   :    16.0000     1.3333    -4.0000 

 Edisp/kcal,au: -4.217149524961  -0.006720454829 
 E6   /kcal   :  -1.641941629 
 E8   /kcal   :  -2.575207896 
 % E8         :  61.065131331 

-------------------------   ----------------
Dispersion correction           -0.006720455
-------------------------   ----------------


-------------------------   --------------------
FINAL SINGLE POINT ENERGY      -493.755617518920
-------------------------   --------------------

--------------------------------------------------------------------------
[[62004,1],2]: A high-performance Open MPI point-to-point messaging module
was unable to find any relevant network interfaces:

Module: OpenFabrics (openib)
  Host: compute-1-10

Another transport will be used instead, although this may result in
lower performance.

NOTE: You can disable this warning by setting the MCA parameter
btl_base_warn_component_unused to 0.
--------------------------------------------------------------------------


           ************************************************************
           *        Program running with 4 parallel MPI-processes     *
           *              working on a common directory               *
           ************************************************************
------------------------------------------------------------------------------
                         ORCA SCF GRADIENT CALCULATION
------------------------------------------------------------------------------

Gradient of the Kohn-Sham DFT energy:
Kohn-Sham wavefunction type      ... RKS
Hartree-Fock exchange scaling    ...    0.196
Number of operators              ...    1
Number of atoms                  ...   19
Basis set dimensions             ...  364
Integral neglect threshold       ... 2.5e-11
Integral primitive cutoff        ... 2.5e-12

Nuclear repulsion gradient       ... done
One Electron Gradient            ... done
Pre-screening matrix             ... done
Starting the two electron gradient:
[compute-1-10.local:05257] 3 more processes have sent help message help-mpi-btl-base.txt / btl:no-nics
[compute-1-10.local:05257] Set MCA parameter "orte_base_help_aggregate" to 0 to see all help / error messages
Two electron gradient done
Exchange-correlation gradient    ... done
Dispersion correction            ... done

------------------
CARTESIAN GRADIENT
------------------

   1   C   :    0.044421602   -0.008072584   -0.061438603
   2   N   :   -0.004328785    0.004048184    0.023492892
   3   H   :   -0.015301812    0.007735653    0.011646715
   4   C   :   -0.066779080   -0.020368079   -0.001409500
   5   C   :    0.050466789   -0.028446903    0.007951581
   6   N   :    0.021355935   -0.012785456    0.003310747
   7   C   :   -0.017115310    0.041811562   -0.007254003
   8   C   :   -0.040781079    0.128028457   -0.017720717
   9   O   :    0.025662236   -0.038225050    0.007901427
  10   O   :    0.027565962   -0.097883314    0.013100320
  11   C   :   -0.029886785    0.016409421   -0.004955615
[...]
   Christoph Reimann      : Effective Core Potentials
   Marius Retegan         : Local ZFS, SOC
   Christoph Riplinger    : Optimizer, TS searches, QM/MM, DLPNO-CCSD(T), (RO)-DLPNO pert. Triples
   Tobias Risthaus        : Range-separated hybrids, TD-DFT gradient, RPA, STAB
   Michael Roemelt        : Original ROCIS implementation
   Masaaki Saitow         : Open-shell DLPNO-CCSD energy and density
   Barbara Sandhoefer     : DKH picture change effects
   Avijit Sen             : IP-ROCIS
   Kantharuban Sivalingam : CASSCF convergence, NEVPT2, FIC-MRCI
   Bernardo de Souza      : ESD, SOC TD-DFT
   Georgi Stoychev        : AutoAux, RI-MP2 NMR
   Willem Van den Heuvel  : Paramagnetic NMR
   Boris Wezisla          : Elementary symmetry handling
   Frank Wennmohs         : Technical directorship


 We gratefully acknowledge several colleagues who have allowed us to
 interface, adapt or use parts of their codes:
   Stefan Grimme, W. Hujo, H. Kruse,             : VdW corrections, initial TS optimization,
                  C. Bannwarth                     DFT functionals, gCP, sTDA/sTD-DF
   Ed Valeev, F. Pavosevic, A. Kumar             : LibInt (2-el integral package), F12 methods
   Garnet Chan, S. Sharma, J. Yang, R. Olivares  : DMRG
   Ulf Ekstrom                                   : XCFun DFT Library
   Mihaly Kallay                                 : mrcc  (arbitrary order and MRCC methods)
   Andreas Klamt, Michael Diedenhofen            : otool_cosmo (COSMO solvation model)
   Jiri Pittner, Ondrej Demel                    : Mk-CCSD
   Frank Weinhold                                : gennbo (NPA and NBO analysis)
   Christopher J. Cramer and Donald G. Truhlar   : smd solvation model
   Lars Goerigk                                  : TD-DFT with DH, B97 family of functionals
   V. Asgeirsson, H. Jonsson                     : NEB implementation
   FAccTs GmbH                                   : IRC, NEB, NEB-TS, Multilevel, MM, QM/MM, CI optimization
   S Lehtola, MJT Oliveira, MAL Marques          : LibXC Library


 Your calculation uses the libint2 library for the computation of 2-el integrals
 For citations please refer to: http://libint.valeyev.net

 Your ORCA version has been built with support for libXC version: 4.2.3
 For citations please refer to: https://tddft.org/programs/libxc/

 This ORCA versions uses:
   CBLAS   interface :  Fast vector & matrix operations
   LAPACKE interface :  Fast linear algebra routines
   SCALAPACK package :  Parallel linear algebra routines


Your calculation utilizes the atom-pairwise dispersion correction
with the zero-damping scheme (D30)
Cite in your paper:
S.Grimme, J.Antony, S.Ehrlich and H.Krieg, J.Chem.Phys., 132, (2010), 154104 
   

XCFun DFT library Copyright 2009-2010 Ulf Ekstrom and contributors.
See http://admol.org/xcfun for more information. This is free soft-
ware; see the source code for copying conditions. There is ABSOLUTELY
NO WARRANTY; not even for MERCHANTABILITY or FITNESS FOR A PARTICULAR
PURPOSE. For details see the documentation. Scientific users of this 
library should cite U. Ekstrom, L. Visscher, R. Bast, A. J. Thorvald-
sen and K. Ruud; J.Chem.Theor.Comp. 2010, DOI: 10.1021/ct100117s
XCFun Version 0.99 
----- Orbital basis set information -----
Your calculation utilizes the basis: def2-TZVP
   F. Weigend and R. Ahlrichs, Phys. Chem. Chem. Phys. 7, 3297 (2005).

----- AuxJ basis set information -----
Your calculation utilizes the auxiliary basis: def2/J
   F. Weigend, Phys. Chem. Chem. Phys. 8, 1057 (2006).

================================================================================
                                        WARNINGS
                       Please study these warnings very carefully!
================================================================================


WARNING: Geometry Optimization
  ===> : Switching off AutoStart
         For restart on a previous wavefunction, please use MOREAD

INFO   : the flag for use of LIBINT has been found!

================================================================================
                                       INPUT FILE
================================================================================
NAME = DMimC.inp
|  1> # avogadro generated ORCA input file 
|  2> # Basic Mode
|  3> # 
|  4> ! wB97X-D3 OPT def2-TZVP def2/J CPCM
|  5> %cpcm
|  6>   epsilon 3
|  7> end
|  8> %pal
|  9>  nprocs 4
| 10> end 
| 11> 
| 12> * xyz 0 1
| 13>    C        1.59090        0.09222        1.03917
| 14>    N        2.62227       -0.06282       -0.07248
| 15>    C        3.49616        1.09208       -0.20633
| 16>    C        4.73229        0.67726       -0.00112
| 17>    N        4.70856       -0.72741        0.23287
| 18>    C        3.51039       -1.17943        0.17463
| 19>    C        2.94871       -2.63503        0.18319
| 20>    O        1.89736       -2.66808       -0.45902
| 21>    O        3.64270       -3.43810        0.78600
| 22>    C        5.91569       -1.53064        0.47974
| 23>    H        0.98295        0.95403        0.78232
| 24>    H        1.00063       -0.81880        1.05551
| 25>    H        3.07924        2.06674       -0.39727
| 26>    H        5.66449        1.21767        0.00816
| 27>    H        6.76804       -0.85926        0.46422
| 28>    H        6.00082       -2.28115       -0.30176
| 29>    H        5.81435       -2.01580        1.44571
| 30> *
| 31> 
| 32> 
| 33>                          ****END OF INPUT****
================================================================================

                       *****************************
                       * Geometry Optimization Run *
                       *****************************

Geometry optimization settings:
Update method            Update   .... BFGS
Choice of coordinates    CoordSys .... Z-matrix Internals
Initial Hessian          InHess   .... Almoef's Model

Convergence Tolerances:
Energy Change            TolE     ....  5.0000e-06 Eh
Max. Gradient            TolMAXG  ....  3.0000e-04 Eh/bohr
RMS Gradient             TolRMSG  ....  1.0000e-04 Eh/bohr
Max. Displacement        TolMAXD  ....  4.0000e-03 bohr
RMS Displacement         TolRMSD  ....  2.0000e-03 bohr
Strict Convergence                ....  False
------------------------------------------------------------------------------
                        ORCA OPTIMIZATION COORDINATE SETUP
------------------------------------------------------------------------------

The optimization will be done in new redundant internal coordinates
Making redundant internal coordinates   ...  (new redundants) done
Evaluating the initial hessian          ...  (Almloef) done
Evaluating the coordinates              ...  done
Calculating the B-matrix                .... done
Calculating the G-matrix                .... done
Diagonalizing the G-matrix              .... done
The first mode is                       ....   33
The number of degrees of freedom        ....   45

    -----------------------------------------------------------------
                    Redundant Internal Coordinates


    -----------------------------------------------------------------
         Definition                    Initial Value    Approx d2E/dq
    -----------------------------------------------------------------
      1. B(N   1,C   0)                  1.5243         0.341656   
      2. B(C   2,N   1)                  1.4544         0.441638   
      3. B(C   3,C   2)                  1.3199         0.808235   
      4. B(N   4,C   3)                  1.4242         0.493485   
      5. B(C   5,N   4)                  1.2819         0.832350   
      6. B(C   5,N   1)                  1.4480         0.452248   
      7. B(C   6,C   5)                  1.5602         0.334304   
      8. B(O   7,C   6)                  1.2324         0.998348   
      9. B(O   8,C   6)                  1.2206         1.042566   
     10. B(C   9,N   4)                  1.4708         0.415859   
     11. B(H  10,C   0)                  1.0855         0.366114   
     12. B(H  11,C   0)                  1.0857         0.365896   
     13. B(H  12,C   2)                  1.0771         0.377513   
     14. B(H  13,C   3)                  1.0776         0.376945   
     15. B(H  14,C   9)                  1.0851         0.366609   
     16. B(H  15,C   9)                  1.0869         0.364284   
     17. B(H  16,C   9)                  1.0857         0.365831   
     18. A(H  10,C   0,H  11)          111.4247         0.292331   
     19. A(N   1,C   0,H  10)          106.6868         0.318571   
     20. A(N   1,C   0,H  11)          107.0676         0.318540   
     21. A(C   2,N   1,C   5)          105.0411         0.381663   
     22. A(C   0,N   1,C   5)          111.6527         0.365145   
     23. A(C   0,N   1,C   2)          113.1344         0.363665   
     24. A(N   1,C   2,C   3)          107.3879         0.425535   
     25. A(N   1,C   2,H  12)          120.1491         0.333998   
     26. A(C   3,C   2,H  12)          132.4092         0.372242   
     27. A(C   2,C   3,N   4)          108.6568         0.434097   
     28. A(C   2,C   3,H  13)          130.8371         0.372146   
     29. A(N   4,C   3,H  13)          120.5060         0.340146   
     30. A(C   5,N   4,C   9)          125.6028         0.420452   
     31. A(C   3,N   4,C   5)          110.8473         0.433543   
     32. A(C   3,N   4,C   9)          123.5399         0.383465   
     33. A(N   1,C   5,N   4)          108.0060         0.426805   
     34. A(N   4,C   5,C   6)          131.6971         0.407090   
     35. A(N   1,C   5,C   6)          119.9714         0.366068   
     36. A(O   7,C   6,O   8)          136.4457         0.514245   
     37. A(C   5,C   6,O   8)          114.3197         0.423723   
     38. A(C   5,C   6,O   7)          109.2242         0.420456   
     39. A(H  14,C   9,H  16)          111.2552         0.292385   
     40. A(N   4,C   9,H  16)          108.4675         0.328972   
     41. A(H  14,C   9,H  15)          110.8200         0.292190   
     42. A(N   4,C   9,H  15)          108.7056         0.328742   
     43. A(H  15,C   9,H  16)          109.7847         0.292092   
     44. A(N   4,C   9,H  14)          107.7208         0.329087   
     45. D(C   5,N   1,C   0,H  11)    -61.4608         0.009385   
     46. D(C   5,N   1,C   0,H  10)    179.1369         0.009385   
     47. D(C   2,N   1,C   0,H  11)   -179.7057         0.009385   
     48. D(C   2,N   1,C   0,H  10)     60.8919         0.009385   
     49. D(C   3,C   2,N   1,C   0)    119.7026         0.015360   
     50. D(H  12,C   2,N   1,C   5)   -179.9744         0.015360   
     51. D(C   3,C   2,N   1,C   5)     -2.3223         0.015360   
     52. D(H  12,C   2,N   1,C   0)    -57.9495         0.015360   
     53. D(H  13,C   3,C   2,H  12)     -1.4545         0.047309   
     54. D(H  13,C   3,C   2,N   1)   -178.7044         0.047309   
     55. D(N   4,C   3,C   2,H  12)    178.6671         0.047309   
     56. D(N   4,C   3,C   2,N   1)      1.4171         0.047309   
     57. D(C   9,N   4,C   3,C   2)    179.0567         0.019238   
     58. D(C   5,N   4,C   3,H  13)   -179.7438         0.019238   
     59. D(C   5,N   4,C   3,C   2)      0.1495         0.019238   
     60. D(C   9,N   4,C   3,H  13)     -0.8365         0.019238   
     61. D(C   6,C   5,N   4,C   9)     -7.2815         0.059657   
     62. D(N   1,C   5,N   4,C   9)    179.4631         0.059657   
     63. D(N   1,C   5,N   4,C   3)     -1.6570         0.059657   
     64. D(C   6,C   5,N   1,C   2)   -171.7619         0.016108   
     65. D(C   6,C   5,N   1,C   0)     65.2550         0.016108   
     66. D(C   6,C   5,N   4,C   3)    171.5983         0.059657   
     67. D(N   4,C   5,N   1,C   2)      2.4281         0.016108   
     68. D(N   4,C   5,N   1,C   0)   -120.5550         0.016108   
     69. D(O   8,C   6,C   5,N   4)     28.8788         0.007932   
     70. D(O   8,C   6,C   5,N   1)   -158.5293         0.007932   
     71. D(O   7,C   6,C   5,N   4)   -150.1415         0.007932   
     72. D(O   7,C   6,C   5,N   1)     22.4504         0.007932   
     73. D(H  15,C   9,N   4,C   3)   -119.1389         0.014749   
     74. D(H  14,C   9,N   4,C   5)    179.7468         0.014749   
     75. D(H  14,C   9,N   4,C   3)      1.0028         0.014749   
     76. D(H  16,C   9,N   4,C   5)    -59.7252         0.014749   
     77. D(H  16,C   9,N   4,C   3)    121.5308         0.014749   
     78. D(H  15,C   9,N   4,C   5)     59.6051         0.014749   
    -----------------------------------------------------------------

Number of atoms                         .... 17
Number of degrees of freedom            .... 78

         *************************************************************
         *                GEOMETRY OPTIMIZATION CYCLE   1            *
         *************************************************************
---------------------------------
CARTESIAN COORDINATES (ANGSTROEM)
---------------------------------
  C      1.590900    0.092220    1.039170
  N      2.622270   -0.062820   -0.072480
  C      3.496160    1.092080   -0.206330
  C      4.732290    0.677260   -0.001120
  N      4.708560   -0.727410    0.232870
  C      3.510390   -1.179430    0.174630
  C      2.948710   -2.635030    0.183190
  O      1.897360   -2.668080   -0.459020
  O      3.642700   -3.438100    0.786000
  C      5.915690   -1.530640    0.479740
  H      0.982950    0.954030    0.782320
  H      1.000630   -0.818800    1.055510
  H      3.079240    2.066740   -0.397270
  H      5.664490    1.217670    0.008160
  H      6.768040   -0.859260    0.464220
  H      6.000820   -2.281150   -0.301760
  H      5.814350   -2.015800    1.445710

----------------------------
CARTESIAN COORDINATES (A.U.)
----------------------------
  NO LB      ZA    FRAG     MASS         X           Y           Z
   0 C     6.0000    0    12.011    3.006365    0.174271    1.963747
   1 N     7.0000    0    14.007    4.955372   -0.118713   -0.136967
   2 C     6.0000    0    12.011    6.606785    2.063732   -0.389907
   3 C     6.0000    0    12.011    8.942732    1.279836   -0.002116
   4 N     7.0000    0    14.007    8.897889   -1.374606    0.440061
   5 C     6.0000    0    12.011    6.633676   -2.228800    0.330003
   6 C     6.0000    0    12.011    5.572254   -4.979485    0.346179
   7 O     8.0000    0    15.999    3.585491   -5.041941   -0.867422
   8 O     8.0000    0    15.999    6.883705   -6.497067    1.485325
   9 C     6.0000    0    12.011   11.179034   -2.892490    0.906577
  10 H     1.0000    0     1.008    1.857506    1.802855    1.478371
  11 H     1.0000    0     1.008    1.890917   -1.547308    1.994625
  12 H     1.0000    0     1.008    5.818920    3.905573   -0.750732
  13 H     1.0000    0     1.008   10.704335    2.301063    0.015420
  14 H     1.0000    0     1.008   12.789742   -1.623766    0.877249
  15 H     1.0000    0     1.008   11.339906   -4.310749   -0.570244
  16 H     1.0000    0     1.008   10.987529   -3.809310    2.731996

--------------------------------
INTERNAL COORDINATES (ANGSTROEM)
--------------------------------
 C      0   0   0     0.000000000000     0.00000000     0.00000000
 N      1   0   0     1.524312041873     0.00000000     0.00000000
 C      2   1   0     1.454439261228   113.13438403     0.00000000
 C      3   2   1     1.319925813597   107.38794428   119.70259701
 N      4   3   2     1.424223382023   108.65683796     1.41710973
 C      5   4   3     1.281922512050   110.84732505     0.14947418
 C      6   5   4     1.560233654297   131.69706773   171.59826535
 O      7   6   5     1.232421522491   109.22417669   209.85847747
 O      7   6   5     1.220624201423   114.31968304    28.87880558
 C      5   4   3     1.470811363398   123.53987200   179.05674169
 H      1   2   3     1.085491409961   106.68678517    60.89194916
 H      1   2   3     1.085653309717   107.06764698   180.29425852
 H      3   2   1     1.077145526658   120.14912372   302.05046969
 H      4   3   2     1.077555532908   130.83705225   181.29555998
 H     10   5   4     1.085123263643   107.72083911     1.00277245
 H     10   5   4     1.086855384584   108.70557605   240.86106189
 H     10   5   4     1.085701645066   108.46752809   121.53080291

---------------------------
INTERNAL COORDINATES (A.U.)
---------------------------
 C      0   0   0     0.000000000000     0.00000000     0.00000000
 N      1   0   0     2.880532301779     0.00000000     0.00000000
 C      2   1   0     2.748491882143   113.13438403     0.00000000
 C      3   2   1     2.494298304792   107.38794428   119.70259701
 N      4   3   2     2.691392145550   108.65683796     1.41710973
 C      5   4   3     2.422482472682   110.84732505     0.14947418
 C      6   5   4     2.948414311548   131.69706773   171.59826535
 O      7   6   5     2.328939159059   109.22417669   209.85847747
 O      7   6   5     2.306645453126   114.31968304    28.87880558
 C      5   4   3     2.779430671481   123.53987200   179.05674169
 H      1   2   3     2.051281485551   106.68678517    60.89194916
 H      1   2   3     2.051587431751   107.06764698   180.29425852
 H      3   2   1     2.035510051763   120.14912372   302.05046969
 H      4   3   2     2.036284851287   130.83705225   181.29555998
 H     10   5   4     2.050585789833   107.72083911     1.00277245
 H     10   5   4     2.053859024042   108.70557605   240.86106189
 H     10   5   4     2.051678772323   108.46752809   121.53080291

---------------------
BASIS SET INFORMATION
---------------------
There are 4 groups of distinct atoms

 Group   1 Type C   : 11s6p2d1f contracted to 5s3p2d1f pattern {62111/411/11/1}
 Group   2 Type N   : 11s6p2d1f contracted to 5s3p2d1f pattern {62111/411/11/1}
 Group   3 Type O   : 11s6p2d1f contracted to 5s3p2d1f pattern {62111/411/11/1}
 Group   4 Type H   : 5s1p contracted to 3s1p pattern {311/1}

Atom   0C    basis set group =>   1
Atom   1N    basis set group =>   2
Atom   2C    basis set group =>   1
Atom   3C    basis set group =>   1
Atom   4N    basis set group =>   2
Atom   5C    basis set group =>   1
Atom   6C    basis set group =>   1
Atom   7O    basis set group =>   3
Atom   8O    basis set group =>   3
Atom   9C    basis set group =>   1
Atom  10H    basis set group =>   4
Atom  11H    basis set group =>   4
Atom  12H    basis set group =>   4
Atom  13H    basis set group =>   4
Atom  14H    basis set group =>   4
Atom  15H    basis set group =>   4
Atom  16H    basis set group =>   4
---------------------------------
AUXILIARY/J BASIS SET INFORMATION
---------------------------------
There are 4 groups of distinct atoms

 Group   1 Type C   : 12s5p4d2f1g contracted to 6s4p3d1f1g pattern {711111/2111/211/2/1}
 Group   2 Type N   : 12s5p4d2f1g contracted to 6s4p3d1f1g pattern {711111/2111/211/2/1}
 Group   3 Type O   : 12s5p4d2f1g contracted to 6s4p3d1f1g pattern {711111/2111/211/2/1}
 Group   4 Type H   : 5s2p1d contracted to 3s1p1d pattern {311/2/1}

Atom   0C    basis set group =>   1
Atom   1N    basis set group =>   2
Atom   2C    basis set group =>   1
Atom   3C    basis set group =>   1
Atom   4N    basis set group =>   2
Atom   5C    basis set group =>   1
Atom   6C    basis set group =>   1
Atom   7O    basis set group =>   3
Atom   8O    basis set group =>   3
Atom   9C    basis set group =>   1
Atom  10H    basis set group =>   4
Atom  11H    basis set group =>   4
Atom  12H    basis set group =>   4
Atom  13H    basis set group =>   4
Atom  14H    basis set group =>   4
Atom  15H    basis set group =>   4
Atom  16H    basis set group =>   4
[file orca_main/mainfcts.cpp, line 620]: Error : multiplicity (1) is odd and number of electrons (73) is odd -> impossible

[file orca_main/mainfcts.cpp, line 620]: Error : multiplicity (1) is odd and number of electrons (73) is odd -> impossible

