Warning: no access to tty (Bad file descriptor).
Thus no job control in this shell.

                                 *****************
                                 * O   R   C   A *
                                 *****************

           --- An Ab Initio, DFT and Semiempirical electronic structure package ---

                  #######################################################
                  #                        -***-                        #
                  #          Department of theory and spectroscopy      #
                  #               Directorship: Frank Neese             #
                  #        Max Planck Institute fuer Kohlenforschung    #
                  #                Kaiser Wilhelm Platz 1               #
                  #                 D-45470 Muelheim/Ruhr               #
                  #                      Germany                        #
                  #                                                     #
                  #                  All rights reserved                #
                  #                        -***-                        #
                  #######################################################


                         Program Version 4.2.1 -  RELEASE  -


 With contributions from (in alphabetic order):
   Daniel Aravena         : Magnetic Suceptibility
   Michael Atanasov       : Ab Initio Ligand Field Theory (pilot matlab implementation)
   Alexander A. Auer      : GIAO ZORA, VPT2
   Ute Becker             : Parallelization
   Giovanni Bistoni       : ED, misc. LED, open-shell LED, HFLD
   Martin Brehm           : Molecular dynamics
   Dmytro Bykov           : SCF Hessian
   Vijay G. Chilkuri      : MRCI spin determinant printing, contributions to CSF-ICE
   Dipayan Datta          : RHF DLPNO-CCSD density
   Achintya Kumar Dutta   : EOM-CC, STEOM-CC
   Dmitry Ganyushin       : Spin-Orbit,Spin-Spin,Magnetic field MRCI
   Miquel Garcia          : C-PCM Hessian, Gaussian charge scheme
   Yang Guo               : DLPNO-NEVPT2, CIM, IAO-localization
   Andreas Hansen         : Spin unrestricted coupled pair/coupled cluster methods
   Benjamin Helmich-Paris : CASSCF linear response (MC-RPA)
   Lee Huntington         : MR-EOM, pCC
   Robert Izsak           : Overlap fitted RIJCOSX, COSX-SCS-MP3, EOM
   Christian Kollmar      : KDIIS, OOCD, Brueckner-CCSD(T), CCSD density
   Simone Kossmann        : Meta GGA functionals, TD-DFT gradient, OOMP2, MP2 Hessian
   Martin Krupicka        : AUTO-CI
   Lucas Lang             : DCDCAS
   Dagmar Lenk            : GEPOL surface, SMD
   Dimitrios Liakos       : Extrapolation schemes; Compound Job, initial MDCI parallelization
   Dimitrios Manganas     : Further ROCIS development; embedding schemes
   Dimitrios Pantazis     : SARC Basis sets
   Taras Petrenko         : DFT Hessian,TD-DFT gradient, ASA, ECA, R-Raman, ABS, FL, XAS/XES, NRVS
   Peter Pinski           : DLPNO-MP2, DLPNO-MP2 Gradient
   Christoph Reimann      : Effective Core Potentials
   Marius Retegan         : Local ZFS, SOC
   Christoph Riplinger    : Optimizer, TS searches, QM/MM, DLPNO-CCSD(T), (RO)-DLPNO pert. Triples
   Tobias Risthaus        : Range-separated hybrids, TD-DFT gradient, RPA, STAB
   Michael Roemelt        : Original ROCIS implementation
   Masaaki Saitow         : Open-shell DLPNO-CCSD energy and density
   Barbara Sandhoefer     : DKH picture change effects
   Avijit Sen             : IP-ROCIS
   Kantharuban Sivalingam : CASSCF convergence, NEVPT2, FIC-MRCI
   Bernardo de Souza      : ESD, SOC TD-DFT
   Georgi Stoychev        : AutoAux, RI-MP2 NMR
   Willem Van den Heuvel  : Paramagnetic NMR
   Boris Wezisla          : Elementary symmetry handling
   Frank Wennmohs         : Technical directorship


 We gratefully acknowledge several colleagues who have allowed us to
 interface, adapt or use parts of their codes:
   Stefan Grimme, W. Hujo, H. Kruse,             : VdW corrections, initial TS optimization,
                  C. Bannwarth                     DFT functionals, gCP, sTDA/sTD-DF
   Ed Valeev, F. Pavosevic, A. Kumar             : LibInt (2-el integral package), F12 methods
   Garnet Chan, S. Sharma, J. Yang, R. Olivares  : DMRG
   Ulf Ekstrom                                   : XCFun DFT Library
   Mihaly Kallay                                 : mrcc  (arbitrary order and MRCC methods)
   Andreas Klamt, Michael Diedenhofen            : otool_cosmo (COSMO solvation model)
   Jiri Pittner, Ondrej Demel                    : Mk-CCSD
   Frank Weinhold                                : gennbo (NPA and NBO analysis)
   Christopher J. Cramer and Donald G. Truhlar   : smd solvation model
   Lars Goerigk                                  : TD-DFT with DH, B97 family of functionals
   V. Asgeirsson, H. Jonsson                     : NEB implementation
   FAccTs GmbH                                   : IRC, NEB, NEB-TS, Multilevel, MM, QM/MM, CI optimization
   S Lehtola, MJT Oliveira, MAL Marques          : LibXC Library


 Your calculation uses the libint2 library for the computation of 2-el integrals
 For citations please refer to: http://libint.valeyev.net

 Your ORCA version has been built with support for libXC version: 4.2.3
 For citations please refer to: https://tddft.org/programs/libxc/

 This ORCA versions uses:
   CBLAS   interface :  Fast vector & matrix operations
   LAPACKE interface :  Fast linear algebra routines
   SCALAPACK package :  Parallel linear algebra routines


[file orca_tools/Tool-Scanner/qcscan1.cpp, line 102]: 
	 Unknown identifier in CPCM block line    7  : 
	 Last token : Â
[file orca_tools/Tool-Scanner/qcscan1.cpp, line 102]: 
	 Unknown identifier in CPCM block line    7  : 
	 Last token : Â
Warning: no access to tty (Bad file descriptor).
Thus no job control in this shell.

                                 *****************
                                 * O   R   C   A *
                                 *****************

           --- An Ab Initio, DFT and Semiempirical electronic structure package ---

                  #######################################################
                  #                        -***-                        #
                  #          Department of theory and spectroscopy      #
                  #               Directorship: Frank Neese             #
                  #        Max Planck Institute fuer Kohlenforschung    #
                  #                Kaiser Wilhelm Platz 1               #
                  #                 D-45470 Muelheim/Ruhr               #
                  #                      Germany                        #
                  #                                                     #
                  #                  All rights reserved                #
                  #                        -***-                        #
                  #######################################################


                         Program Version 4.2.1 -  RELEASE  -


 With contributions from (in alphabetic order):
   Daniel Aravena         : Magnetic Suceptibility
   Michael Atanasov       : Ab Initio Ligand Field Theory (pilot matlab implementation)
   Alexander A. Auer      : GIAO ZORA, VPT2
   Ute Becker             : Parallelization
   Giovanni Bistoni       : ED, misc. LED, open-shell LED, HFLD
   Martin Brehm           : Molecular dynamics
   Dmytro Bykov           : SCF Hessian
   Vijay G. Chilkuri      : MRCI spin determinant printing, contributions to CSF-ICE
   Dipayan Datta          : RHF DLPNO-CCSD density
   Achintya Kumar Dutta   : EOM-CC, STEOM-CC
   Dmitry Ganyushin       : Spin-Orbit,Spin-Spin,Magnetic field MRCI
   Miquel Garcia          : C-PCM Hessian, Gaussian charge scheme
   Yang Guo               : DLPNO-NEVPT2, CIM, IAO-localization
   Andreas Hansen         : Spin unrestricted coupled pair/coupled cluster methods
   Benjamin Helmich-Paris : CASSCF linear response (MC-RPA)
   Lee Huntington         : MR-EOM, pCC
   Robert Izsak           : Overlap fitted RIJCOSX, COSX-SCS-MP3, EOM
   Christian Kollmar      : KDIIS, OOCD, Brueckner-CCSD(T), CCSD density
   Simone Kossmann        : Meta GGA functionals, TD-DFT gradient, OOMP2, MP2 Hessian
   Martin Krupicka        : AUTO-CI
   Lucas Lang             : DCDCAS
   Dagmar Lenk            : GEPOL surface, SMD
   Dimitrios Liakos       : Extrapolation schemes; Compound Job, initial MDCI parallelization
   Dimitrios Manganas     : Further ROCIS development; embedding schemes
   Dimitrios Pantazis     : SARC Basis sets
   Taras Petrenko         : DFT Hessian,TD-DFT gradient, ASA, ECA, R-Raman, ABS, FL, XAS/XES, NRVS
   Peter Pinski           : DLPNO-MP2, DLPNO-MP2 Gradient
   Christoph Reimann      : Effective Core Potentials
   Marius Retegan         : Local ZFS, SOC
   Christoph Riplinger    : Optimizer, TS searches, QM/MM, DLPNO-CCSD(T), (RO)-DLPNO pert. Triples
   Tobias Risthaus        : Range-separated hybrids, TD-DFT gradient, RPA, STAB
   Michael Roemelt        : Original ROCIS implementation
   Masaaki Saitow         : Open-shell DLPNO-CCSD energy and density
   Barbara Sandhoefer     : DKH picture change effects
   Avijit Sen             : IP-ROCIS
   Kantharuban Sivalingam : CASSCF convergence, NEVPT2, FIC-MRCI
   Bernardo de Souza      : ESD, SOC TD-DFT
   Georgi Stoychev        : AutoAux, RI-MP2 NMR
   Willem Van den Heuvel  : Paramagnetic NMR
   Boris Wezisla          : Elementary symmetry handling
   Frank Wennmohs         : Technical directorship


 We gratefully acknowledge several colleagues who have allowed us to
 interface, adapt or use parts of their codes:
   Stefan Grimme, W. Hujo, H. Kruse,             : VdW corrections, initial TS optimization,
                  C. Bannwarth                     DFT functionals, gCP, sTDA/sTD-DF
   Ed Valeev, F. Pavosevic, A. Kumar             : LibInt (2-el integral package), F12 methods
   Garnet Chan, S. Sharma, J. Yang, R. Olivares  : DMRG
   Ulf Ekstrom                                   : XCFun DFT Library
   Mihaly Kallay                                 : mrcc  (arbitrary order and MRCC methods)
   Andreas Klamt, Michael Diedenhofen            : otool_cosmo (COSMO solvation model)
   Jiri Pittner, Ondrej Demel                    : Mk-CCSD
   Frank Weinhold                                : gennbo (NPA and NBO analysis)
   Christopher J. Cramer and Donald G. Truhlar   : smd solvation model
   Lars Goerigk                                  : TD-DFT with DH, B97 family of functionals
   V. Asgeirsson, H. Jonsson                     : NEB implementation
   FAccTs GmbH                                   : IRC, NEB, NEB-TS, Multilevel, MM, QM/MM, CI optimization
   S Lehtola, MJT Oliveira, MAL Marques          : LibXC Library


 Your calculation uses the libint2 library for the computation of 2-el integrals
 For citations please refer to: http://libint.valeyev.net

 Your ORCA version has been built with support for libXC version: 4.2.3
 For citations please refer to: https://tddft.org/programs/libxc/

 This ORCA versions uses:
   CBLAS   interface :  Fast vector & matrix operations
   LAPACKE interface :  Fast linear algebra routines
   SCALAPACK package :  Parallel linear algebra routines


[file orca_tools/Tool-Scanner/qcscan1.cpp, line 102]: 
	 Unknown identifier in CPCM block line    7  : 
	 Last token : Â
[file orca_tools/Tool-Scanner/qcscan1.cpp, line 102]: 
	 Unknown identifier in CPCM block line    7  : 
	 Last token : Â
Warning: no access to tty (Bad file descriptor).
Thus no job control in this shell.

                                 *****************
                                 * O   R   C   A *
                                 *****************

           --- An Ab Initio, DFT and Semiempirical electronic structure package ---

                  #######################################################
                  #                        -***-                        #
                  #          Department of theory and spectroscopy      #
                  #               Directorship: Frank Neese             #
                  #        Max Planck Institute fuer Kohlenforschung    #
                  #                Kaiser Wilhelm Platz 1               #
                  #                 D-45470 Muelheim/Ruhr               #
                  #                      Germany                        #
                  #                                                     #
                  #                  All rights reserved                #
                  #                        -***-                        #
                  #######################################################


                         Program Version 4.2.1 -  RELEASE  -


 With contributions from (in alphabetic order):
   Daniel Aravena         : Magnetic Suceptibility
   Michael Atanasov       : Ab Initio Ligand Field Theory (pilot matlab implementation)
   Alexander A. Auer      : GIAO ZORA, VPT2
   Ute Becker             : Parallelization
   Giovanni Bistoni       : ED, misc. LED, open-shell LED, HFLD
   Martin Brehm           : Molecular dynamics
   Dmytro Bykov           : SCF Hessian
   Vijay G. Chilkuri      : MRCI spin determinant printing, contributions to CSF-ICE
   Dipayan Datta          : RHF DLPNO-CCSD density
   Achintya Kumar Dutta   : EOM-CC, STEOM-CC
   Dmitry Ganyushin       : Spin-Orbit,Spin-Spin,Magnetic field MRCI
   Miquel Garcia          : C-PCM Hessian, Gaussian charge scheme
   Yang Guo               : DLPNO-NEVPT2, CIM, IAO-localization
   Andreas Hansen         : Spin unrestricted coupled pair/coupled cluster methods
   Benjamin Helmich-Paris : CASSCF linear response (MC-RPA)
   Lee Huntington         : MR-EOM, pCC
   Robert Izsak           : Overlap fitted RIJCOSX, COSX-SCS-MP3, EOM
   Christian Kollmar      : KDIIS, OOCD, Brueckner-CCSD(T), CCSD density
   Simone Kossmann        : Meta GGA functionals, TD-DFT gradient, OOMP2, MP2 Hessian
   Martin Krupicka        : AUTO-CI
   Lucas Lang             : DCDCAS
   Dagmar Lenk            : GEPOL surface, SMD
   Dimitrios Liakos       : Extrapolation schemes; Compound Job, initial MDCI parallelization
   Dimitrios Manganas     : Further ROCIS development; embedding schemes
   Dimitrios Pantazis     : SARC Basis sets
   Taras Petrenko         : DFT Hessian,TD-DFT gradient, ASA, ECA, R-Raman, ABS, FL, XAS/XES, NRVS
   Peter Pinski           : DLPNO-MP2, DLPNO-MP2 Gradient
   Christoph Reimann      : Effective Core Potentials
   Marius Retegan         : Local ZFS, SOC
   Christoph Riplinger    : Optimizer, TS searches, QM/MM, DLPNO-CCSD(T), (RO)-DLPNO pert. Triples
   Tobias Risthaus        : Range-separated hybrids, TD-DFT gradient, RPA, STAB
   Michael Roemelt        : Original ROCIS implementation
   Masaaki Saitow         : Open-shell DLPNO-CCSD energy and density
   Barbara Sandhoefer     : DKH picture change effects
   Avijit Sen             : IP-ROCIS
   Kantharuban Sivalingam : CASSCF convergence, NEVPT2, FIC-MRCI
   Bernardo de Souza      : ESD, SOC TD-DFT
   Georgi Stoychev        : AutoAux, RI-MP2 NMR
   Willem Van den Heuvel  : Paramagnetic NMR
   Boris Wezisla          : Elementary symmetry handling
   Frank Wennmohs         : Technical directorship


 We gratefully acknowledge several colleagues who have allowed us to
 interface, adapt or use parts of their codes:
   Stefan Grimme, W. Hujo, H. Kruse,             : VdW corrections, initial TS optimization,
                  C. Bannwarth                     DFT functionals, gCP, sTDA/sTD-DF
   Ed Valeev, F. Pavosevic, A. Kumar             : LibInt (2-el integral package), F12 methods
   Garnet Chan, S. Sharma, J. Yang, R. Olivares  : DMRG
   Ulf Ekstrom                                   : XCFun DFT Library
   Mihaly Kallay                                 : mrcc  (arbitrary order and MRCC methods)
   Andreas Klamt, Michael Diedenhofen            : otool_cosmo (COSMO solvation model)
   Jiri Pittner, Ondrej Demel                    : Mk-CCSD
   Frank Weinhold                                : gennbo (NPA and NBO analysis)
   Christopher J. Cramer and Donald G. Truhlar   : smd solvation model
   Lars Goerigk                                  : TD-DFT with DH, B97 family of functionals
   V. Asgeirsson, H. Jonsson                     : NEB implementation
   FAccTs GmbH                                   : IRC, NEB, NEB-TS, Multilevel, MM, QM/MM, CI optimization
   S Lehtola, MJT Oliveira, MAL Marques          : LibXC Library


 Your calculation uses the libint2 library for the computation of 2-el integrals
 For citations please refer to: http://libint.valeyev.net

 Your ORCA version has been built with support for libXC version: 4.2.3
 For citations please refer to: https://tddft.org/programs/libxc/

 This ORCA versions uses:
   CBLAS   interface :  Fast vector & matrix operations
   LAPACKE interface :  Fast linear algebra routines
   SCALAPACK package :  Parallel linear algebra routines


Your calculation utilizes the atom-pairwise dispersion correction
with the zero-damping scheme (D30)
Cite in your paper:
S.Grimme, J.Antony, S.Ehrlich and H.Krieg, J.Chem.Phys., 132, (2010), 154104 
   

XCFun DFT library Copyright 2009-2010 Ulf Ekstrom and contributors.
See http://admol.org/xcfun for more information. This is free soft-
ware; see the source code for copying conditions. There is ABSOLUTELY
NO WARRANTY; not even for MERCHANTABILITY or FITNESS FOR A PARTICULAR
PURPOSE. For details see the documentation. Scientific users of this 
library should cite U. Ekstrom, L. Visscher, R. Bast, A. J. Thorvald-
sen and K. Ruud; J.Chem.Theor.Comp. 2010, DOI: 10.1021/ct100117s
XCFun Version 0.99 
----- Orbital basis set information -----
Your calculation utilizes the basis: def2-TZVP
   F. Weigend and R. Ahlrichs, Phys. Chem. Chem. Phys. 7, 3297 (2005).

----- AuxJ basis set information -----
Your calculation utilizes the auxiliary basis: def2/J
   F. Weigend, Phys. Chem. Chem. Phys. 8, 1057 (2006).

================================================================================
                                        WARNINGS
                       Please study these warnings very carefully!
================================================================================


WARNING: Geometry Optimization
  ===> : Switching off AutoStart
         For restart on a previous wavefunction, please use MOREAD

INFO   : the flag for use of LIBINT has been found!

================================================================================
                                       INPUT FILE
================================================================================
NAME = TCNQ.inp
|  1> # avogadro generated ORCA input file 
|  2> # Basic Mode
|  3> # 
|  4> ! wB97X-D3 OPT def2-TZVP def2/J CPCM
|  5> %cpcm
|  6>   epsilon 3
|  7> end
|  8> %pal
|  9>  nprocs 4
| 10> end
| 11> 
| 12> 
| 13> * xyz 0 1
| 14>    N        0.97115       -0.06047       -0.07424
| 15>    C        2.23212       -0.06047       -0.07424
| 16>    C        3.75212       -0.06047       -0.07424
| 17>    C        4.51212       -1.01687        0.83025
| 18>    N        5.14260       -1.81028        1.58060
| 19>    C        4.45369        0.85912       -0.79483
| 20>    C        5.93039        0.89174       -0.75424
| 21>    C        6.62777        1.87635       -1.34672
| 22>    C        5.94691        2.96206       -2.07578
| 23>    C        6.64252        4.01173       -2.59007
| 24>    C        8.05455        4.13566       -2.42655
| 25>    N        9.20302        4.21572       -2.28046
| 26>    C        6.00625        5.06337       -3.31185
| 27>    N        5.47241        5.90969       -3.89965
| 28>    C        4.48403        2.84102       -2.24750
| 29>    C        3.78597        1.85655       -1.65028
| 30>    H        6.49177        0.11561       -0.23868
| 31>    H        7.71347        1.84891       -1.28005
| 32>    H        3.94399        3.55279       -2.86827
| 33>    H        2.71147        1.81323       -1.81289
| 34> *
| 35> 
| 36> 
| 37>                          ****END OF INPUT****
================================================================================

                       *****************************
                       * Geometry Optimization Run *
                       *****************************

Geometry optimization settings:
Update method            Update   .... BFGS
Choice of coordinates    CoordSys .... Z-matrix Internals
Initial Hessian          InHess   .... Almoef's Model

Convergence Tolerances:
Energy Change            TolE     ....  5.0000e-06 Eh
Max. Gradient            TolMAXG  ....  3.0000e-04 Eh/bohr
RMS Gradient             TolRMSG  ....  1.0000e-04 Eh/bohr
Max. Displacement        TolMAXD  ....  4.0000e-03 bohr
RMS Displacement         TolRMSD  ....  2.0000e-03 bohr
Strict Convergence                ....  False
------------------------------------------------------------------------------
                        ORCA OPTIMIZATION COORDINATE SETUP
------------------------------------------------------------------------------

The optimization will be done in new redundant internal coordinates
Making redundant internal coordinates   ...  (new redundants) done
Evaluating the initial hessian          ...  (Almloef) done
Evaluating the coordinates              ...  done
Calculating the B-matrix                .... done
Calculating the G-matrix                .... done
Diagonalizing the G-matrix              .... done
Small eigenvalue found = 1.153e-02
Small eigenvalue found = 2.931e-02
The first mode is                       ....   30
The number of degrees of freedom        ....   54

    -----------------------------------------------------------------
                    Redundant Internal Coordinates


    -----------------------------------------------------------------
         Definition                    Initial Value    Approx d2E/dq
    -----------------------------------------------------------------
      1. B(C   1,N   0)                  1.2610         0.898948   
      2. B(C   2,C   1)                  1.5200         0.387554   
      3. B(C   3,C   2)                  1.5200         0.387552   
      4. B(N   4,C   3)                  1.2610         0.898969   
      5. B(C   5,C   2)                  1.3628         0.690572   
      6. B(C   6,C   5)                  1.4776         0.452845   
      7. B(C   7,C   6)                  1.3442         0.739327   
      8. B(C   8,C   7)                  1.4744         0.458225   
      9. B(C   9,C   8)                  1.3602         0.697051   
     10. B(C  10,C   9)                  1.4269         0.545673   
     11. B(N  11,C  10)                  1.1605         1.300305   
     12. B(C  12,C   9)                  1.4254         0.548614   
     13. B(N  13,C  12)                  1.1605         1.300272   
     14. B(C  14,C   8)                  1.4779         0.452394   
     15. B(C  15,C   5)                  1.4739         0.458998   
     16. B(C  15,C  14)                  1.3465         0.732982   
     17. B(H  16,C   6)                  1.0878         0.363011   
     18. B(H  17,C   7)                  1.0881         0.362634   
     19. B(H  18,C  14)                  1.0879         0.362834   
     20. B(H  19,C  15)                  1.0876         0.363292   
     21. L(N   0,C   1,C   2,C   3, 1) 180.0000         0.423692   
     22. L(N   0,C   1,C   2,C   3, 2) 180.0000         0.423692   
     23. A(C   1,C   2,C   5)          120.9853         0.406916   
     24. A(C   1,C   2,C   3)          120.0000         0.367952   
     25. A(C   3,C   2,C   5)          118.8054         0.406916   
     26. L(C   2,C   3,N   4,C   1, 2) 180.0002         0.423693   
     27. L(C   2,C   3,N   4,C   1, 1) 179.9999         0.423693   
     28. A(C   6,C   5,C  15)          116.9838         0.389238   
     29. A(C   2,C   5,C  15)          122.0268         0.419327   
     30. A(C   2,C   5,C   6)          120.9888         0.418319   
     31. A(C   5,C   6,H  16)          120.8647         0.335243   
     32. A(C   5,C   6,C   7)          121.5037         0.423443   
     33. A(C   7,C   6,H  16)          117.6315         0.364136   
     34. A(C   8,C   7,H  17)          120.6399         0.335844   
     35. A(C   6,C   7,H  17)          118.1768         0.364072   
     36. A(C   6,C   7,C   8)          121.1823         0.424338   
     37. A(C   7,C   8,C   9)          121.2691         0.419899   
     38. A(C   9,C   8,C  14)          121.7002         0.418941   
     39. A(C   7,C   8,C  14)          117.0162         0.389055   
     40. A(C   8,C   9,C  12)          122.1763         0.433661   
     41. A(C   8,C   9,C  10)          121.9905         0.433242   
     42. A(C  10,C   9,C  12)          115.8294         0.415081   
     43. L(C   9,C  10,N  11,C  12, 2) 179.9214         0.482155   
     44. L(C   9,C  10,N  11,C  12, 1) 181.2101         0.482155   
     45. L(C   9,C  12,N  13,C  10, 2) 179.7316         0.482631   
     46. L(C   9,C  12,N  13,C  10, 1) 180.9099         0.482631   
     47. A(C  15,C  14,H  18)          118.2982         0.363570   
     48. A(C   8,C  14,H  18)          120.2691         0.335160   
     49. A(C   8,C  14,C  15)          121.4325         0.422716   
     50. A(C   5,C  15,H  19)          120.4895         0.336039   
     51. A(C   5,C  15,C  14)          121.1524         0.423813   
     52. A(C  14,C  15,H  19)          118.3580         0.363648   
     53. D(C   6,C   5,C   2,C   1)    177.6442         0.033512   
     54. D(C  15,C   5,C   2,C   1)     -2.6668         0.033512   
     55. D(C   6,C   5,C   2,C   3)      2.9017         0.033512   
     56. D(C  15,C   5,C   2,C   3)   -177.4092         0.033512   
     57. D(H  16,C   6,C   5,C   2)      6.9062         0.013976   
     58. D(H  16,C   6,C   5,C  15)   -172.7980         0.013976   
     59. D(C   7,C   6,C   5,C   2)   -172.9641         0.013976   
     60. D(C   7,C   6,C   5,C  15)      7.3317         0.013976   
     61. D(H  17,C   7,C   6,H  16)     -0.0952         0.038875   
     62. D(H  17,C   7,C   6,C   5)    179.7791         0.038875   
     63. D(C   8,C   7,C   6,H  16)    179.5237         0.038875   
     64. D(C   8,C   7,C   6,C   5)     -0.6020         0.038875   
     65. D(C   9,C   8,C   7,H  17)     -5.3690         0.014305   
     66. D(C   9,C   8,C   7,C   6)    175.0214         0.014305   
     67. D(C  14,C   8,C   7,C   6)     -6.3371         0.014305   
     68. D(C  14,C   8,C   7,H  17)    173.2725         0.014305   
     69. D(C  12,C   9,C   8,C  14)      0.6541         0.034196   
     70. D(C  12,C   9,C   8,C   7)    179.2316         0.034196   
     71. D(C  10,C   9,C   8,C  14)    179.9184         0.034196   
     72. D(C  10,C   9,C   8,C   7)     -1.5041         0.034196   
     73. D(H  18,C  14,C   8,C   9)      5.3369         0.013948   
     74. D(H  18,C  14,C   8,C   7)   -173.2984         0.013948   
     75. D(C  15,C  14,C   8,C   9)   -174.8089         0.013948   
     76. D(C  15,C  14,C   8,C   7)      6.5559         0.013948   
     77. D(C   5,C  15,C  14,H  18)   -179.9402         0.038149   
     78. D(C   5,C  15,C  14,C   8)      0.2028         0.038149   
     79. D(H  19,C  15,C   5,C   6)    172.9543         0.014352   
     80. D(H  19,C  15,C   5,C   2)     -6.7466         0.014352   
     81. D(C  14,C  15,C   5,C   6)     -7.1028         0.014352   
     82. D(H  19,C  15,C  14,C   8)   -179.8532         0.038149   
     83. D(C  14,C  15,C   5,C   2)    173.1963         0.014352   
     84. D(H  19,C  15,C  14,H  18)      0.0039         0.038149   
    -----------------------------------------------------------------

Number of atoms                         .... 20
Number of degrees of freedom            .... 84

         *************************************************************
         *                GEOMETRY OPTIMIZATION CYCLE   1            *
         *************************************************************
---------------------------------
CARTESIAN COORDINATES (ANGSTROEM)
---------------------------------
  N      0.971150   -0.060470   -0.074240
  C      2.232120   -0.060470   -0.074240
  C      3.752120   -0.060470   -0.074240
  C      4.512120   -1.016870    0.830250
  N      5.142600   -1.810280    1.580600
  C      4.453690    0.859120   -0.794830
  C      5.930390    0.891740   -0.754240
  C      6.627770    1.876350   -1.346720
  C      5.946910    2.962060   -2.075780
  C      6.642520    4.011730   -2.590070
  C      8.054550    4.135660   -2.426550
  N      9.203020    4.215720   -2.280460
  C      6.006250    5.063370   -3.311850
  N      5.472410    5.909690   -3.899650
  C      4.484030    2.841020   -2.247500
  C      3.785970    1.856550   -1.650280
  H      6.491770    0.115610   -0.238680
  H      7.713470    1.848910   -1.280050
  H      3.943990    3.552790   -2.868270
  H      2.711470    1.813230   -1.812890

----------------------------
CARTESIAN COORDINATES (A.U.)
----------------------------
  NO LB      ZA    FRAG     MASS         X           Y           Z
   0 N     7.0000    0    14.007    1.835208   -0.114272   -0.140293
   1 C     6.0000    0    12.011    4.218095   -0.114272   -0.140293
   2 C     6.0000    0    12.011    7.090479   -0.114272   -0.140293
   3 C     6.0000    0    12.011    8.526671   -1.921606    1.568945
   4 N     7.0000    0    14.007    9.718106   -3.420933    2.986901
   5 C     6.0000    0    12.011    8.416254    1.623502   -1.502011
   6 C     6.0000    0    12.011   11.206813    1.685144   -1.425307
   7 C     6.0000    0    12.011   12.524670    3.545788   -2.544932
   8 C     6.0000    0    12.011   11.238031    5.597482   -3.922656
   9 C     6.0000    0    12.011   12.552544    7.581071   -4.894523
  10 C     6.0000    0    12.011   15.220894    7.815265   -4.585515
  11 N     7.0000    0    14.007   17.391187    7.966556   -4.309445
  12 C     6.0000    0    12.011   11.350168    9.568383   -6.258489
  13 N     7.0000    0    14.007   10.341356   11.167696   -7.369271
  14 C     6.0000    0    12.011    8.473589    5.368750   -4.247159
  15 C     6.0000    0    12.011    7.154446    3.508371   -3.118577
  16 H     1.0000    0     1.008   12.267667    0.218471   -0.451040
  17 H     1.0000    0     1.008   14.576346    3.493934   -2.418944
  18 H     1.0000    0     1.008    7.453061    6.713800   -5.420245
  19 H     1.0000    0     1.008    5.123936    3.426508   -3.425866

--------------------------------
INTERNAL COORDINATES (ANGSTROEM)
--------------------------------
 N      0   0   0     0.000000000000     0.00000000     0.00000000
 C      1   0   0     1.260970000000     0.00000000     0.00000000
 C      2   1   0     1.520000000000   179.99999852     0.00000000
 C      3   2   1     1.520001026348   119.99997766     0.00000000
 N      4   3   2     1.260963750867   179.99986220   303.50096523
 C      3   2   1     1.362753162205   120.98529762     0.00000000
 C      6   3   2     1.477617847246   120.98876088   177.64415306
 C      7   6   3     1.344183122532   121.50370049   187.03588973
 C      8   7   6     1.474403278381   121.18226054   359.39802131
 C      9   8   7     1.360211228119   121.26914183   175.02139737
 C     10   9   8     1.426858842423   121.99053866   358.49587063
 N     11  10   9     1.160489221234   178.78917059   358.78414590
 C     10   9   8     1.425395584005   122.17632783   179.23164811
 N     13  10   9     1.160496242131   179.07924003   350.62413782
 C      9   8   7     1.477889148211   117.01620069   353.66290832
 C     15   9   8     1.346529120703   121.43251105     6.55589621
 H      7   6   3     1.087808528602   120.86472397     6.90619063
 H      8   7   6     1.088091141633   118.17676982   179.77910593
 H     15   9   8     1.087940773848   120.26913270   186.70163499
 H     16  15   9     1.087597758595   118.35800695   180.14682326

---------------------------
INTERNAL COORDINATES (A.U.)
---------------------------
 N      0   0   0     0.000000000000     0.00000000     0.00000000
 C      1   0   0     2.382887963091     0.00000000     0.00000000
 C      2   1   0     2.872383723560   179.99999852     0.00000000
 C      3   2   1     2.872385663078   119.99997766     0.00000000
 N      4   3   2     2.382876153940   179.99986220   303.50096523
 C      3   2   1     2.575230264703   120.98529762     0.00000000
 C      6   3   2     2.792293061889   120.98876088   177.64415306
 C      7   6   3     2.540137975425   121.50370049   187.03588973
 C      8   7   6     2.786218407095   121.18226054   359.39802131
 C      9   8   7     2.570426705429   121.26914183   175.02139737
 C     10   9   8     2.696372443943   121.99053866   358.49587063
 N     11  10   9     2.193006809500   178.78917059   358.78414590
 C     10   9   8     2.693607286270   122.17632783   179.23164811
 N     13  10   9     2.193020077072   179.07924003   350.62413782
 C      9   8   7     2.792805746413   117.01620069   353.66290832
 C     15   9   8     2.544571269478   121.43251105     6.55589621
 H      7   6   3     2.055660205202   120.86472397     6.90619063
 H      8   7   6     2.056194266432   118.17676982   179.77910593
 H     15   9   8     2.055910112498   120.26913270   186.70163499
 H     16  15   9     2.055261907610   118.35800695   180.14682326

---------------------
BASIS SET INFORMATION
---------------------
There are 3 groups of distinct atoms

 Group   1 Type N   : 11s6p2d1f contracted to 5s3p2d1f pattern {62111/411/11/1}
 Group   2 Type C   : 11s6p2d1f contracted to 5s3p2d1f pattern {62111/411/11/1}
 Group   3 Type H   : 5s1p contracted to 3s1p pattern {311/1}

Atom   0N    basis set group =>   1
Atom   1C    basis set group =>   2
Atom   2C    basis set group =>   2
Atom   3C    basis set group =>   2
Atom   4N    basis set group =>   1
Atom   5C    basis set group =>   2
Atom   6C    basis set group =>   2
Atom   7C    basis set group =>   2
Atom   8C    basis set group =>   2
Atom   9C    basis set group =>   2
Atom  10C    basis set group =>   2
Atom  11N    basis set group =>   1
Atom  12C    basis set group =>   2
Atom  13N    basis set group =>   1
Atom  14C    basis set group =>   2
Atom  15C    basis set group =>   2
Atom  16H    basis set group =>   3
Atom  17H    basis set group =>   3
Atom  18H    basis set group =>   3
Atom  19H    basis set group =>   3
---------------------------------
AUXILIARY/J BASIS SET INFORMATION
---------------------------------
There are 3 groups of distinct atoms

 Group   1 Type N   : 12s5p4d2f1g contracted to 6s4p3d1f1g pattern {711111/2111/211/2/1}
 Group   2 Type C   : 12s5p4d2f1g contracted to 6s4p3d1f1g pattern {711111/2111/211/2/1}
 Group   3 Type H   : 5s2p1d contracted to 3s1p1d pattern {311/2/1}

Atom   0N    basis set group =>   1
Atom   1C    basis set group =>   2
Atom   2C    basis set group =>   2
Atom   3C    basis set group =>   2
Atom   4N    basis set group =>   1
Atom   5C    basis set group =>   2
Atom   6C    basis set group =>   2
Atom   7C    basis set group =>   2
Atom   8C    basis set group =>   2
Atom   9C    basis set group =>   2
Atom  10C    basis set group =>   2
Atom  11N    basis set group =>   1
Atom  12C    basis set group =>   2
Atom  13N    basis set group =>   1
Atom  14C    basis set group =>   2
Atom  15C    basis set group =>   2
Atom  16H    basis set group =>   3
Atom  17H    basis set group =>   3
Atom  18H    basis set group =>   3
Atom  19H    basis set group =>   3
--------------------------------------------------------------------------
[[19465,1],2]: A high-performance Open MPI point-to-point messaging module
was unable to find any relevant network interfaces:

Module: OpenFabrics (openib)
  Host: compute-0-7

Another transport will be used instead, although this may result in
lower performance.

NOTE: You can disable this warning by setting the MCA parameter
btl_base_warn_component_unused to 0.
--------------------------------------------------------------------------


           ************************************************************
           *        Program running with 4 parallel MPI-processes     *
           *              working on a common directory               *
           ************************************************************
------------------------------------------------------------------------------
                           ORCA GTO INTEGRAL CALCULATION
------------------------------------------------------------------------------

                         BASIS SET STATISTICS AND STARTUP INFO

 # of primitive gaussian shells          ...  344
 # of primitive gaussian functions       ...  768
 # of contracted shells                  ...  192
 # of contracted basis functions         ...  520
 Highest angular momentum                ...    3
 Maximum contraction depth               ...    6
 Integral package used                   ... LIBINT
 Integral threshhold            Thresh   ...  2.500e-11
 Primitive cut-off              TCut     ...  2.500e-12


------------------------------ INTEGRAL EVALUATION ----------------------------


 * One electron integrals 
 Pre-screening matrix                    ... done
 Shell pair data                         ... done (   0.006 sec)

[compute-0-7.local:09818] 3 more processes have sent help message help-mpi-btl-base.txt / btl:no-nics
[compute-0-7.local:09818] Set MCA parameter "orte_base_help_aggregate" to 0 to see all help / error messages
--------------------------------------------------------------------------
[[19519,1],1]: A high-performance Open MPI point-to-point messaging module
was unable to find any relevant network interfaces:

Module: OpenFabrics (openib)
  Host: compute-0-7

Another transport will be used instead, although this may result in
lower performance.

NOTE: You can disable this warning by setting the MCA parameter
btl_base_warn_component_unused to 0.
--------------------------------------------------------------------------


           ************************************************************
           *        Program running with 4 parallel MPI-processes     *
           *              working on a common directory               *
           ************************************************************
-------------------------------------------------------------------------------
                                 ORCA SCF
-------------------------------------------------------------------------------

------------
SCF SETTINGS
------------
Hamiltonian:
 Density Functional     Method          .... DFT(GTOs)
 Exchange Functional    Exchange        .... WB97X-D3
 Correlation Functional Correlation     .... WB97X-D3
 Gradients option       PostSCFGGA      .... off
 Hybrid DFT is turned on
   Fraction HF Exchange ScalHFX         ....  0.195728
   Scaling of DF-GGA-X  ScalDFX         ....  0.000000
   Scaling of DF-GGA-C  ScalDFC         ....  1.000000
   Scaling of DF-LDA-C  ScalLDAC        ....  1.000000
   Perturbative correction              ....  0.000000
   Density functional embedding theory  .... OFF
 Long-range corrected/Screened/Range-Separated Hybrid DFT is turned on
   Amount of maximum screened exact exchange              ....  0.804272
   Range separation parameter mu (erf(mu*r12)/r12)        ....  0.250000


General Settings:
 Integral files         IntName         .... TCNQ
 Hartree-Fock type      HFTyp           .... RHF
 Total Charge           Charge          ....    0
 Multiplicity           Mult            ....    1
 Number of Electrons    NEL             ....  104
 Basis Dimension        Dim             ....  520
 Nuclear Repulsion      ENuc            ....    822.5390268642 Eh

Convergence Acceleration:
 DIIS                   CNVDIIS         .... on
   Start iteration      DIISMaxIt       ....    12
   Startup error        DIISStart       ....  0.200000
   # of expansion vecs  DIISMaxEq       ....     5
   Bias factor          DIISBfac        ....   1.050
   Max. coefficient     DIISMaxC        ....  10.000
 Newton-Raphson         CNVNR           .... off
 SOSCF                  CNVSOSCF        .... on
   Start iteration      SOSCFMaxIt      ....   150
   Startup grad/error   SOSCFStart      ....  0.003300
 Level Shifting         CNVShift        .... on
   Level shift para.    LevelShift      ....    0.2500
   Turn off err/grad.   ShiftErr        ....    0.0010
 Zerner damping         CNVZerner       .... off
 Static damping         CNVDamp         .... on
   Fraction old density DampFac         ....    0.7000
   Max. Damping (<1)    DampMax         ....    0.9800
   Min. Damping (>=0)   DampMin         ....    0.0000
   Turn off err/grad.   DampErr         ....    0.1000
 Fernandez-Rico         CNVRico         .... off

SCF Procedure:
 Maximum # iterations   MaxIter         ....   125
 SCF integral mode      SCFMode         .... Direct
   Integral package                     .... LIBINT
 Reset frequency        DirectResetFreq ....    20
 Integral Threshold     Thresh          ....  2.500e-11 Eh
 Primitive CutOff       TCut            ....  2.500e-12 Eh

Convergence Tolerance:
 Convergence Check Mode ConvCheckMode   .... Total+1el-Energy
 Convergence forced     ConvForced      .... 0
 Energy Change          TolE            ....  1.000e-08 Eh
 1-El. energy change                    ....  1.000e-05 Eh
 Orbital Gradient       TolG            ....  1.000e-05
 Orbital Rotation angle TolX            ....  1.000e-05
 DIIS Error             TolErr          ....  5.000e-07


Diagonalization of the overlap matrix:
Smallest eigenvalue                        ... 1.036e-05
Time for diagonalization                   ...    0.113 sec
Threshold for overlap eigenvalues          ... 1.000e-08
Number of eigenvalues below threshold      ... 0
Time for construction of square roots      ...    0.048 sec
Total time needed                          ...    0.162 sec

-------------------
DFT GRID GENERATION
-------------------

General Integration Accuracy     IntAcc      ...  4.340
Radial Grid Type                 RadialGrid  ... Gauss-Chebyshev
Angular Grid (max. acc.)         AngularGrid ... Lebedev-110
Angular grid pruning method      GridPruning ... 3 (G Style)
Weight generation scheme         WeightScheme... Becke
Basis function cutoff            BFCut       ...    1.0000e-11
Integration weight cutoff        WCut        ...    1.0000e-14
Grids for H and He will be reduced by one unit

# of grid points (after initial pruning)     ...  29856 (   0.0 sec)
# of grid points (after weights+screening)   ...  27637 (   0.1 sec)
nearest neighbour list constructed           ...    0.0 sec
Grid point re-assignment to atoms done       ...    0.0 sec
Grid point division into batches done        ...    0.0 sec
Reduced shell lists constructed in    0.2 sec

Total number of grid points                  ...    27637
Total number of batches                      ...      444
Average number of points per batch           ...       62
Average number of grid points per atom       ...     1382
Average number of shells per batch           ...    88.01 (45.84%)
Average number of basis functions per batch  ...   235.15 (45.22%)
Average number of large shells per batch     ...    61.97 (70.42%)
Average number of large basis fcns per batch ...   167.01 (71.02%)
Maximum spatial batch extension              ...  18.10, 20.13, 23.28 au
Average spatial batch extension              ...   0.95,  1.29,  1.24 au

Time for grid setup =    0.273 sec

------------------------------
INITIAL GUESS: MODEL POTENTIAL
------------------------------
Loading Hartree-Fock densities                     ... done
Calculating cut-offs                               ... done
Setting up the integral package                    ... done
Initializing the effective Hamiltonian             ... done
Starting the Coulomb interaction                   ... done (   0.3 sec)
Reading the grid                                   ... done
Mapping shells                                     ... done
Starting the XC term evaluation                    ... done (   0.4 sec)
  promolecular density results
     # of electrons  =    104.009675532
     EX              =    -88.267476455
     EC              =     -3.410389862
     EX+EC           =    -91.677866318
Transforming the Hamiltonian                       ... done (   0.0 sec)
Diagonalizing the Hamiltonian                      ... done (   0.1 sec)
Back transforming the eigenvectors                 ... done (   0.0 sec)
Now organizing SCF variables                       ... done
                      ------------------
                      INITIAL GUESS DONE (   1.3 sec)
                      ------------------

--------------------
CPCM SOLVATION MODEL
--------------------
CPCM parameters:
  Epsilon                                         ...       3.0000
  Refrac                                          ...       1.3300
  Rsolv                                           ...       1.3000
  Surface type                                    ...    GEPOL SES
  Epsilon function type                           ...         CPCM
Radii:
 Radius for N  used is    3.4582 Bohr (=   1.8300 Ang.)
 Radius for C  used is    3.7795 Bohr (=   2.0000 Ang.)
 Radius for H  used is    2.4566 Bohr (=   1.3000 Ang.)
Calculating surface                               ...        done! (  0.1s)
GEPOL surface points                              ...          730
GEPOL Volume                                      ...    1703.8640
GEPOL Surface-area                                ...     900.3267
Calculating surface distance matrix               ...        done! (  0.0s)
Performing Cholesky decomposition & store         ...        done! (  0.0s)
Overall time for CPCM initialization              ...                 0.1s
--------------
SCF ITERATIONS
--------------
ITER       Energy         Delta-E        Max-DP      RMS-DP      [F,P]     Damp
               ***  Starting incremental Fock matrix formation  ***
[compute-0-7.local:09836] 3 more processes have sent help message help-mpi-btl-base.txt / btl:no-nics
[compute-0-7.local:09836] Set MCA parameter "orte_base_help_aggregate" to 0 to see all help / error messages
  0   -678.1612228904   0.000000000000 0.05484370  0.00077727  0.2608225 0.7000
  1   -678.3378053425  -0.176582452062 0.03319146  0.00059893  0.1186203 0.7000
                               ***Turning on DIIS***
  2   -678.4034516217  -0.065646279253 0.05460681  0.00118263  0.0418556 0.0000
  3   -678.5264853887  -0.123033767035 0.02489057  0.00047340  0.0584114 0.0000
  4   -678.5434249056  -0.016939516899 0.00750127  0.00016723  0.0234374 0.0000
  5   -678.5458610178  -0.002436112109 0.00318840  0.00007515  0.0037703 0.0000
                      *** Initiating the SOSCF procedure ***
                           *** Shutting down DIIS ***
                      *** Re-Reading the Fockian *** 
                      *** Removing any level shift *** 
ITER      Energy       Delta-E        Grad      Rot      Max-DP    RMS-DP
  6   -678.54610753  -0.0002465144  0.002382  0.002382  0.002328  0.000041
               *** Restarting incremental Fock matrix formation ***
  7   -678.54622834  -0.0001208125  0.001560  0.004933  0.001205  0.000028
  8   -678.54629025  -0.0000619011  0.000709  0.007110  0.002909  0.000049
  9   -678.54630392  -0.0000136776  0.000738  0.002420  0.001135  0.000018
 10   -678.54631887  -0.0000149481  0.000154  0.000488  0.000279  0.000005
 11   -678.54631873   0.0000001444  0.000188  0.000243  0.000160  0.000003
 12   -678.54631947  -0.0000007420  0.000024  0.000120  0.000054  0.000001
 13   -678.54631950  -0.0000000331  0.000027  0.000106  0.000020  0.000000
 14   -678.54631953  -0.0000000266  0.000006  0.000049  0.000009  0.000000
 15   -678.54631953  -0.0000000019  0.000003  0.000011  0.000005  0.000000
                 **** Energy Check signals convergence ****
              ***Rediagonalizing the Fockian in SOSCF/NRSCF***

               *****************************************************
               *                     SUCCESS                       *
               *           SCF CONVERGED AFTER  16 CYCLES          *
               *****************************************************

Setting up the final grid:

General Integration Accuracy     IntAcc      ...  4.670
Radial Grid Type                 RadialGrid  ... Gauss-Chebyshev
Angular Grid (max. acc.)         AngularGrid ... Lebedev-302
Angular grid pruning method      GridPruning ... 3 (G Style)
Weight generation scheme         WeightScheme... Becke
Basis function cutoff            BFCut       ...    1.0000e-11
Integration weight cutoff        WCut        ...    1.0000e-14
Grids for H and He will be reduced by one unit

# of grid points (after initial pruning)     ... 112968 (   0.0 sec)
# of grid points (after weights+screening)   ... 103051 (   0.2 sec)
nearest neighbour list constructed           ...    0.0 sec
Grid point re-assignment to atoms done       ...    0.0 sec
Grid point division into batches done        ...    0.6 sec
Reduced shell lists constructed in    1.1 sec

Total number of grid points                  ...   103051
Total number of batches                      ...     1620
Average number of points per batch           ...       63
Average number of grid points per atom       ...     5153
Average number of shells per batch           ...    78.31 (40.79%)
Average number of basis functions per batch  ...   208.26 (40.05%)
Average number of large shells per batch     ...    54.36 (69.41%)
Average number of large basis fcns per batch ...   145.18 (69.71%)
Maximum spatial batch extension              ...  18.67, 27.87, 18.08 au
Average spatial batch extension              ...   0.69,  0.79,  0.80 au

Final grid set up in    1.4 sec
Final integration                            ... done (   1.8 sec)
Change in XC energy                          ...     0.002487393
Integrated number of electrons               ...   104.000079675
Previous integrated no of electrons          ...   104.005990343

----------------
TOTAL SCF ENERGY
----------------

Total Energy       :         -678.54383215 Eh          -18464.11637 eV

Components:
Nuclear Repulsion  :          822.53902686 Eh           22382.42482 eV
Electronic Energy  :        -1501.08285901 Eh          -40846.54119 eV
One Electron Energy:        -2544.54535844 Eh          -69240.59933 eV
Two Electron Energy:         1043.46249943 Eh           28394.05814 eV
CPCM Dielectric    :           -0.01744788 Eh              -0.47478 eV

Virial components:
Potential Energy   :        -1352.79244425 Eh          -36811.35386 eV
Kinetic Energy     :          674.24861211 Eh           18347.23749 eV
Virial Ratio       :            2.00637038


DFT components:
N(Alpha)           :       52.000039837667 electrons
N(Beta)            :       52.000039837667 electrons
N(Total)           :      104.000079675333 electrons
E(XC)              :      -64.847132666241 Eh       
DFET-embed. en.    :        0.000000000000 Eh       
CPCM Solvation Model Properties:
Surface-charge          :           -0.02953025
Charge-correction       :            0.00025019 Eh               0.00681 eV
Free-energy (cav+disp)  :            0.00482272 Eh               0.13123 eV
Corrected G(solv)       :         -678.53875923 Eh          -18463.97833 eV

---------------
SCF CONVERGENCE
---------------

  Last Energy change         ...   -7.3716e-09  Tolerance :   1.0000e-08
  Last MAX-Density change    ...    3.9152e-06  Tolerance :   1.0000e-07
  Last RMS-Density change    ...    8.4730e-08  Tolerance :   5.0000e-09
  Last Orbital Gradient      ...    1.2243e-06  Tolerance :   1.0000e-05
  Last Orbital Rotation      ...    5.7164e-06  Tolerance :   1.0000e-05

             **** THE GBW FILE WAS UPDATED (TCNQ.gbw) ****
             **** DENSITY FILE WAS UPDATED (TCNQ.scfp) ****
             **** ENERGY FILE WAS UPDATED (TCNQ.en.tmp) ****
             **** THE GBW FILE WAS UPDATED (TCNQ.gbw) ****
             **** DENSITY FILE WAS UPDATED (TCNQ.scfp) ****
----------------
ORBITAL ENERGIES
----------------

  NO   OCC          E(Eh)            E(eV) 
   0   2.0000     -14.488630      -394.2557 
   1   2.0000     -14.487532      -394.2258 
   2   2.0000     -14.461007      -393.5040 
   3   2.0000     -14.460949      -393.5024 
   4   2.0000     -10.417497      -283.4745 
   5   2.0000     -10.395525      -282.8766 
   6   2.0000     -10.394363      -282.8450 
   7   2.0000     -10.394039      -282.8362 
   8   2.0000     -10.386264      -282.6246 
   9   2.0000     -10.384154      -282.5672 
  10   2.0000     -10.359741      -281.9029 
  11   2.0000     -10.359530      -281.8971 
  12   2.0000     -10.344756      -281.4951 
  13   2.0000     -10.343910      -281.4721 
  14   2.0000     -10.343602      -281.4637 
  15   2.0000     -10.342713      -281.4395 
  16   2.0000      -1.075820       -29.2745 
  17   2.0000      -1.055585       -28.7239 
  18   2.0000      -1.051738       -28.6192 
  19   2.0000      -1.028488       -27.9866 
  20   2.0000      -1.020231       -27.7619 
  21   2.0000      -0.995632       -27.0925 
  22   2.0000      -0.943822       -25.6827 
  23   2.0000      -0.930479       -25.3196 
  24   2.0000      -0.857007       -23.3204 
  25   2.0000      -0.787832       -21.4380 
  26   2.0000      -0.782089       -21.2817 
  27   2.0000      -0.734720       -19.9927 
  28   2.0000      -0.694550       -18.8997 
  29   2.0000      -0.691055       -18.8046 
  30   2.0000      -0.670049       -18.2330 
  31   2.0000      -0.592176       -16.1139 
  32   2.0000      -0.586114       -15.9490 
  33   2.0000      -0.580944       -15.8083 
  34   2.0000      -0.569505       -15.4970 
  35   2.0000      -0.544715       -14.8225 
  36   2.0000      -0.540304       -14.7024 
  37   2.0000      -0.517395       -14.0790 
  38   2.0000      -0.512572       -13.9478 
  39   2.0000      -0.511923       -13.9301 
  40   2.0000      -0.506106       -13.7718 
  41   2.0000      -0.489923       -13.3315 
  42   2.0000      -0.483905       -13.1677 
  43   2.0000      -0.480457       -13.0739 
  44   2.0000      -0.478477       -13.0200 
  45   2.0000      -0.464845       -12.6491 
  46   2.0000      -0.458590       -12.4789 
  47   2.0000      -0.457362       -12.4454 
  48   2.0000      -0.448427       -12.2023 
  49   2.0000      -0.424130       -11.5412 
  50   2.0000      -0.412071       -11.2130 
  51   2.0000      -0.344323        -9.3695 
  52   0.0000      -0.107127        -2.9151 
  53   0.0000       0.005688         0.1548 
  54   0.0000       0.017716         0.4821 
  55   0.0000       0.019123         0.5204 
  56   0.0000       0.050445         1.3727 
  57   0.0000       0.056408         1.5349 
  58   0.0000       0.063533         1.7288 
  59   0.0000       0.094609         2.5744 
  60   0.0000       0.103554         2.8179 
  61   0.0000       0.106428         2.8961 
  62   0.0000       0.112835         3.0704 
  63   0.0000       0.116984         3.1833 
  64   0.0000       0.133681         3.6376 
  65   0.0000       0.134036         3.6473 
  66   0.0000       0.163939         4.4610 
  67   0.0000       0.166390         4.5277 
  68   0.0000       0.187432         5.1003 
  69   0.0000       0.189565         5.1583 
  70   0.0000       0.195300         5.3144 
  71   0.0000       0.206484         5.6187 
  72   0.0000       0.230960         6.2847 
  73   0.0000       0.236941         6.4475 
  74   0.0000       0.244986         6.6664 
  75   0.0000       0.247530         6.7356 
  76   0.0000       0.253600         6.9008 
  77   0.0000       0.254397         6.9225 
  78   0.0000       0.269718         7.3394 
  79   0.0000       0.271699         7.3933 
  80   0.0000       0.281526         7.6607 
  81   0.0000       0.286199         7.7879 
  82   0.0000       0.295165         8.0319 
  83   0.0000       0.300651         8.1811 
  84   0.0000       0.308758         8.4017 
  85   0.0000       0.314416         8.5557 
  86   0.0000       0.316991         8.6258 
  87   0.0000       0.324030         8.8173 
  88   0.0000       0.336025         9.1437 
  89   0.0000       0.340806         9.2738 
  90   0.0000       0.353150         9.6097 
  91   0.0000       0.362958         9.8766 
  92   0.0000       0.369025        10.0417 
  93   0.0000       0.371935        10.1209 
  94   0.0000       0.378720        10.3055 
  95   0.0000       0.380967        10.3666 
  96   0.0000       0.383278        10.4295 
  97   0.0000       0.392271        10.6742 
  98   0.0000       0.407535        11.0896 
  99   0.0000       0.410863        11.1801 
 100   0.0000       0.426445        11.6041 
 101   0.0000       0.427656        11.6371 
 102   0.0000       0.432959        11.7814 
 103   0.0000       0.435269        11.8443 
 104   0.0000       0.439440        11.9578 
 105   0.0000       0.444554        12.0969 
 106   0.0000       0.461713        12.5638 
 107   0.0000       0.469838        12.7849 
 108   0.0000       0.473301        12.8792 
 109   0.0000       0.483013        13.1435 
 110   0.0000       0.490395        13.3443 
 111   0.0000       0.505477        13.7547 
 112   0.0000       0.509865        13.8741 
 113   0.0000       0.512212        13.9380 
 114   0.0000       0.525599        14.3023 
 115   0.0000       0.528061        14.3693 
 116   0.0000       0.533499        14.5173 
 117   0.0000       0.535083        14.5603 
 118   0.0000       0.535886        14.5822 
 119   0.0000       0.542484        14.7618 
 120   0.0000       0.545984        14.8570 
 121   0.0000       0.585445        15.9308 
 122   0.0000       0.588744        16.0205 
 123   0.0000       0.602714        16.4007 
 124   0.0000       0.617515        16.8034 
 125   0.0000       0.619556        16.8590 
 126   0.0000       0.622875        16.9493 
 127   0.0000       0.627744        17.0818 
 128   0.0000       0.630347        17.1526 
 129   0.0000       0.638407        17.3719 
 130   0.0000       0.639779        17.4093 
 131   0.0000       0.660319        17.9682 
 132   0.0000       0.664135        18.0720 
 133   0.0000       0.668062        18.1789 
 134   0.0000       0.675775        18.3888 
 135   0.0000       0.689367        18.7586 
 136   0.0000       0.690164        18.7803 
 137   0.0000       0.700809        19.0700 
 138   0.0000       0.707793        19.2600 
 139   0.0000       0.715137        19.4599 
 140   0.0000       0.727655        19.8005 
 141   0.0000       0.741897        20.1881 
 142   0.0000       0.747537        20.3415 
 143   0.0000       0.754344        20.5267 
 144   0.0000       0.754461        20.5299 
 145   0.0000       0.767580        20.8869 
 146   0.0000       0.774997        21.0887 
 147   0.0000       0.783491        21.3199 
 148   0.0000       0.792718        21.5710 
 149   0.0000       0.794266        21.6131 
 150   0.0000       0.801142        21.8002 
 151   0.0000       0.812916        22.1206 
 152   0.0000       0.814646        22.1677 
 153   0.0000       0.822401        22.3787 
 154   0.0000       0.831242        22.6192 
 155   0.0000       0.848061        23.0769 
 156   0.0000       0.850107        23.1326 
 157   0.0000       0.865313        23.5464 
 158   0.0000       0.879590        23.9349 
 159   0.0000       0.883597        24.0439 
 160   0.0000       0.890192        24.2234 
 161   0.0000       0.898630        24.4530 
 162   0.0000       0.909063        24.7369 
 163   0.0000       0.913305        24.8523 
 164   0.0000       0.915353        24.9080 
 165   0.0000       0.950213        25.8566 
 166   0.0000       0.956381        26.0245 
 167   0.0000       0.960563        26.1382 
 168   0.0000       0.990393        26.9500 
 169   0.0000       1.000722        27.2310 
 170   0.0000       1.013680        27.5836 
 171   0.0000       1.021937        27.8083 
 172   0.0000       1.039083        28.2749 
 173   0.0000       1.066012        29.0077 
 174   0.0000       1.083292        29.4779 
 175   0.0000       1.088250        29.6128 
 176   0.0000       1.100858        29.9559 
 177   0.0000       1.105968        30.0949 
 178   0.0000       1.128066        30.6962 
 179   0.0000       1.128626        30.7115 
 180   0.0000       1.141427        31.0598 
 181   0.0000       1.143387        31.1131 
 182   0.0000       1.170410        31.8485 
 183   0.0000       1.181447        32.1488 
 184   0.0000       1.186147        32.2767 
 185   0.0000       1.199362        32.6363 
 186   0.0000       1.214998        33.0618 
 187   0.0000       1.221799        33.2468 
 188   0.0000       1.256057        34.1790 
 189   0.0000       1.265764        34.4432 
 190   0.0000       1.270425        34.5700 
 191   0.0000       1.273155        34.6443 
 192   0.0000       1.281873        34.8815 
 193   0.0000       1.306696        35.5570 
 194   0.0000       1.309229        35.6259 
 195   0.0000       1.316187        35.8153 
 196   0.0000       1.320512        35.9330 
 197   0.0000       1.325332        36.0641 
 198   0.0000       1.334367        36.3100 
 199   0.0000       1.346949        36.6523 
 200   0.0000       1.362018        37.0624 
 201   0.0000       1.368173        37.2299 
 202   0.0000       1.374552        37.4035 
 203   0.0000       1.388009        37.7696 
 204   0.0000       1.404492        38.2182 
 205   0.0000       1.407955        38.3124 
 206   0.0000       1.409152        38.3450 
 207   0.0000       1.418097        38.5884 
 208   0.0000       1.437504        39.1165 
 209   0.0000       1.448562        39.4174 
 210   0.0000       1.453846        39.5612 
 211   0.0000       1.457738        39.6671 
 212   0.0000       1.477544        40.2060 
 213   0.0000       1.483753        40.3750 
 214   0.0000       1.495063        40.6827 
 215   0.0000       1.507613        41.0242 
 216   0.0000       1.528830        41.6016 
 217   0.0000       1.533220        41.7210 
 218   0.0000       1.545430        42.0533 
 219   0.0000       1.560107        42.4527 
 220   0.0000       1.562420        42.5156 
 221   0.0000       1.574617        42.8475 
 222   0.0000       1.589085        43.2412 
 223   0.0000       1.593700        43.3668 
 224   0.0000       1.610957        43.8364 
 225   0.0000       1.613810        43.9140 
 226   0.0000       1.622198        44.1423 
 227   0.0000       1.634079        44.4655 
 228   0.0000       1.645843        44.7857 
 229   0.0000       1.651221        44.9320 
 230   0.0000       1.658083        45.1187 
 231   0.0000       1.664582        45.2956 
 232   0.0000       1.698659        46.2229 
 233   0.0000       1.703086        46.3433 
 234   0.0000       1.716364        46.7046 
 235   0.0000       1.747125        47.5417 
 236   0.0000       1.751350        47.6567 
 237   0.0000       1.761655        47.9371 
 238   0.0000       1.777556        48.3698 
 239   0.0000       1.794044        48.8184 
 240   0.0000       1.797263        48.9060 
 241   0.0000       1.820853        49.5479 
 242   0.0000       1.830774        49.8179 
 243   0.0000       1.848865        50.3102 
 244   0.0000       1.865809        50.7713 
 245   0.0000       1.888096        51.3777 
 246   0.0000       1.894969        51.5647 
 247   0.0000       1.903900        51.8078 
 248   0.0000       1.911487        52.0142 
 249   0.0000       1.940722        52.8097 
 250   0.0000       1.942023        52.8451 
 251   0.0000       1.959351        53.3166 
 252   0.0000       1.961991        53.3885 
 253   0.0000       1.987158        54.0733 
 254   0.0000       2.003598        54.5207 
 255   0.0000       2.013385        54.7870 
 256   0.0000       2.023588        55.0646 
 257   0.0000       2.042999        55.5928 
 258   0.0000       2.051838        55.8333 
 259   0.0000       2.061080        56.0848 
 260   0.0000       2.073474        56.4221 
 261   0.0000       2.113078        57.4998 
 262   0.0000       2.115951        57.5780 
 263   0.0000       2.157568        58.7104 
 264   0.0000       2.161835        58.8265 
 265   0.0000       2.208836        60.1055 
 266   0.0000       2.221205        60.4421 
 267   0.0000       2.228398        60.6378 
 268   0.0000       2.236998        60.8718 
 269   0.0000       2.271408        61.8082 
 270   0.0000       2.288722        62.2793 
 271   0.0000       2.318582        63.0918 
 272   0.0000       2.329626        63.3923 
 273   0.0000       2.339400        63.6583 
 274   0.0000       2.350409        63.9579 
 275   0.0000       2.366638        64.3995 
 276   0.0000       2.374732        64.6198 
 277   0.0000       2.379823        64.7583 
 278   0.0000       2.382864        64.8410 
 279   0.0000       2.405182        65.4483 
 280   0.0000       2.417758        65.7905 
 281   0.0000       2.432254        66.1850 
 282   0.0000       2.439188        66.3737 
 283   0.0000       2.461454        66.9796 
 284   0.0000       2.464019        67.0494 
 285   0.0000       2.465206        67.0817 
 286   0.0000       2.473373        67.3039 
 287   0.0000       2.514440        68.4214 
 288   0.0000       2.524076        68.6836 
 289   0.0000       2.537545        69.0501 
 290   0.0000       2.546567        69.2956 
 291   0.0000       2.585282        70.3491 
 292   0.0000       2.603191        70.8364 
 293   0.0000       2.630400        71.5768 
 294   0.0000       2.649019        72.0835 
 295   0.0000       2.659545        72.3699 
 296   0.0000       2.664081        72.4933 
 297   0.0000       2.668209        72.6057 
 298   0.0000       2.697602        73.4055 
 299   0.0000       2.699207        73.4492 
 300   0.0000       2.717266        73.9406 
 301   0.0000       2.718401        73.9715 
 302   0.0000       2.720681        74.0335 
 303   0.0000       2.723385        74.1071 
 304   0.0000       2.735007        74.4233 
 305   0.0000       2.739873        74.5557 
 306   0.0000       2.743190        74.6460 
 307   0.0000       2.751888        74.8827 
 308   0.0000       2.759333        75.0853 
 309   0.0000       2.768824        75.3435 
 310   0.0000       2.769363        75.3582 
 311   0.0000       2.786481        75.8240 
 312   0.0000       2.790943        75.9454 
 313   0.0000       2.801238        76.2256 
 314   0.0000       2.813991        76.5726 
 315   0.0000       2.823591        76.8338 
 316   0.0000       2.846597        77.4598 
 317   0.0000       2.850911        77.5772 
 318   0.0000       2.866147        77.9918 
 319   0.0000       2.871485        78.1371 
 320   0.0000       2.871571        78.1394 
 321   0.0000       2.897261        78.8385 
 322   0.0000       2.901356        78.9499 
 323   0.0000       2.913462        79.2793 
 324   0.0000       2.918228        79.4090 
 325   0.0000       2.938598        79.9633 
 326   0.0000       2.953626        80.3722 
 327   0.0000       2.973667        80.9176 
 328   0.0000       2.987663        81.2984 
 329   0.0000       2.989785        81.3562 
 330   0.0000       2.991512        81.4032 
 331   0.0000       3.031785        82.4991 
 332   0.0000       3.036076        82.6158 
 333   0.0000       3.037703        82.6601 
 334   0.0000       3.043348        82.8137 
 335   0.0000       3.047690        82.9319 
 336   0.0000       3.050874        83.0185 
 337   0.0000       3.069638        83.5291 
 338   0.0000       3.071484        83.5793 
 339   0.0000       3.079971        83.8103 
 340   0.0000       3.089691        84.0748 
 341   0.0000       3.095074        84.2213 
 342   0.0000       3.114850        84.7594 
 343   0.0000       3.137485        85.3753 
 344   0.0000       3.145376        85.5900 
 345   0.0000       3.146449        85.6192 
 346   0.0000       3.157248        85.9131 
 347   0.0000       3.157713        85.9257 
 348   0.0000       3.166213        86.1570 
 349   0.0000       3.172147        86.3185 
 350   0.0000       3.191990        86.8585 
 351   0.0000       3.193743        86.9062 
 352   0.0000       3.204471        87.1981 
 353   0.0000       3.215192        87.4898 
 354   0.0000       3.222294        87.6831 
 355   0.0000       3.234201        88.0071 
 356   0.0000       3.234417        88.0130 
 357   0.0000       3.244440        88.2857 
 358   0.0000       3.253732        88.5385 
 359   0.0000       3.261280        88.7439 
 360   0.0000       3.272013        89.0360 
 361   0.0000       3.279958        89.2522 
 362   0.0000       3.289804        89.5201 
 363   0.0000       3.296719        89.7083 
 364   0.0000       3.304186        89.9115 
 365   0.0000       3.307869        90.0117 
 366   0.0000       3.342993        90.9675 
 367   0.0000       3.345597        91.0383 
 368   0.0000       3.357030        91.3494 
 369   0.0000       3.373520        91.7982 
 370   0.0000       3.383994        92.0832 
 371   0.0000       3.391249        92.2806 
 372   0.0000       3.401152        92.5501 
 373   0.0000       3.406240        92.6885 
 374   0.0000       3.416699        92.9731 
 375   0.0000       3.426506        93.2400 
 376   0.0000       3.434008        93.4441 
 377   0.0000       3.439911        93.6047 
 378   0.0000       3.453920        93.9859 
 379   0.0000       3.464517        94.2743 
 380   0.0000       3.472775        94.4990 
 381   0.0000       3.482057        94.7516 
 382   0.0000       3.489798        94.9622 
 383   0.0000       3.506885        95.4272 
 384   0.0000       3.532202        96.1161 
 385   0.0000       3.553181        96.6870 
 386   0.0000       3.557259        96.7980 
 387   0.0000       3.576051        97.3093 
 388   0.0000       3.585813        97.5749 
 389   0.0000       3.593829        97.7931 
 390   0.0000       3.599351        97.9433 
 391   0.0000       3.650203        99.3271 
 392   0.0000       3.654512        99.4443 
 393   0.0000       3.675632       100.0190 
 394   0.0000       3.693301       100.4998 
 395   0.0000       3.704569       100.8064 
 396   0.0000       3.730645       101.5160 
 397   0.0000       3.753588       102.1403 
 398   0.0000       3.775775       102.7441 
 399   0.0000       3.778552       102.8196 
 400   0.0000       3.789307       103.1123 
 401   0.0000       3.825854       104.1068 
 402   0.0000       3.830431       104.2313 
 403   0.0000       3.856794       104.9487 
 404   0.0000       3.869114       105.2839 
 405   0.0000       3.884462       105.7016 
 406   0.0000       3.910590       106.4126 
 407   0.0000       3.950635       107.5022 
 408   0.0000       3.968248       107.9815 
 409   0.0000       3.998924       108.8162 
 410   0.0000       4.008370       109.0733 
 411   0.0000       4.008946       109.0890 
 412   0.0000       4.013050       109.2006 
 413   0.0000       4.019087       109.3649 
 414   0.0000       4.021226       109.4231 
 415   0.0000       4.033178       109.7483 
 416   0.0000       4.037914       109.8772 
 417   0.0000       4.042585       110.0043 
 418   0.0000       4.043862       110.0391 
 419   0.0000       4.045889       110.0942 
 420   0.0000       4.051057       110.2349 
 421   0.0000       4.069469       110.7359 
 422   0.0000       4.078470       110.9808 
 423   0.0000       4.153416       113.0202 
 424   0.0000       4.177412       113.6732 
 425   0.0000       4.191454       114.0553 
 426   0.0000       4.229069       115.0788 
 427   0.0000       4.234418       115.2244 
 428   0.0000       4.263870       116.0258 
 429   0.0000       4.278544       116.4251 
 430   0.0000       4.318626       117.5158 
 431   0.0000       4.332066       117.8815 
 432   0.0000       4.340021       118.0980 
 433   0.0000       4.355974       118.5321 
 434   0.0000       4.361745       118.6891 
 435   0.0000       4.368872       118.8831 
 436   0.0000       4.391577       119.5009 
 437   0.0000       4.426480       120.4506 
 438   0.0000       4.430705       120.5656 
 439   0.0000       4.446331       120.9908 
 440   0.0000       4.462146       121.4212 
 441   0.0000       4.476928       121.8234 
 442   0.0000       4.525811       123.1536 
 443   0.0000       4.548387       123.7679 
 444   0.0000       4.564133       124.1964 
 445   0.0000       4.580501       124.6418 
 446   0.0000       4.601481       125.2127 
 447   0.0000       4.618503       125.6758 
 448   0.0000       4.623583       125.8141 
 449   0.0000       4.624952       125.8513 
 450   0.0000       4.639880       126.2576 
 451   0.0000       4.643975       126.3690 
 452   0.0000       4.655627       126.6861 
 453   0.0000       4.664140       126.9177 
 454   0.0000       4.682770       127.4246 
 455   0.0000       4.706044       128.0580 
 456   0.0000       4.710257       128.1726 
 457   0.0000       4.745161       129.1224 
 458   0.0000       4.752195       129.3138 
 459   0.0000       4.778674       130.0343 
 460   0.0000       4.783202       130.1575 
 461   0.0000       4.848410       131.9320 
 462   0.0000       4.875302       132.6637 
 463   0.0000       4.884328       132.9093 
 464   0.0000       4.894939       133.1981 
 465   0.0000       4.910803       133.6298 
 466   0.0000       4.978937       135.4838 
 467   0.0000       5.003883       136.1626 
 468   0.0000       5.057722       137.6276 
 469   0.0000       5.071870       138.0126 
 470   0.0000       5.094838       138.6376 
 471   0.0000       5.097686       138.7151 
 472   0.0000       5.100362       138.7879 
 473   0.0000       5.141750       139.9141 
 474   0.0000       5.173317       140.7731 
 475   0.0000       5.178503       140.9142 
 476   0.0000       5.234336       142.4335 
 477   0.0000       5.238467       142.5459 
 478   0.0000       5.245565       142.7391 
 479   0.0000       5.247015       142.7785 
 480   0.0000       5.300048       144.2216 
 481   0.0000       5.310977       144.5190 
 482   0.0000       5.321512       144.8057 
 483   0.0000       5.441276       148.0647 
 484   0.0000       5.454525       148.4252 
 485   0.0000       5.494525       149.5136 
 486   0.0000       5.524910       150.3404 
 487   0.0000       5.530760       150.4996 
 488   0.0000       5.561074       151.3245 
 489   0.0000       5.581840       151.8896 
 490   0.0000       5.598883       152.3534 
 491   0.0000       5.624080       153.0390 
 492   0.0000       5.661231       154.0499 
 493   0.0000       5.714203       155.4914 
 494   0.0000       5.741542       156.2353 
 495   0.0000       5.747317       156.3924 
 496   0.0000       5.799503       157.8125 
 497   0.0000       5.835861       158.8019 
 498   0.0000       5.917858       161.0331 
 499   0.0000       5.987337       162.9237 
 500   0.0000       6.006106       163.4344 
 501   0.0000       6.208677       168.9467 
 502   0.0000       6.237603       169.7338 
 503   0.0000       6.242428       169.8651 
 504   0.0000      22.321527       607.3996 
 505   0.0000      22.529775       613.0664 
 506   0.0000      22.611432       615.2883 
 507   0.0000      22.841605       621.5517 
 508   0.0000      22.898753       623.1068 
 509   0.0000      22.954917       624.6350 
 510   0.0000      23.015840       626.2928 
 511   0.0000      23.141680       629.7171 
 512   0.0000      23.367418       635.8598 
 513   0.0000      23.421045       637.3190 
 514   0.0000      23.705508       645.0597 
 515   0.0000      23.996569       652.9799 
 516   0.0000      32.063655       872.4964 
 517   0.0000      32.094418       873.3335 
 518   0.0000      32.171884       875.4415 
 519   0.0000      32.198070       876.1540 

                    ********************************
                    * MULLIKEN POPULATION ANALYSIS *
                    ********************************

-----------------------
MULLIKEN ATOMIC CHARGES
-----------------------
   0 N :   -0.186546
   1 C :   -0.056445
   2 C :    0.310168
   3 C :   -0.052936
   4 N :   -0.187857
   5 C :    0.147582
   6 C :   -0.186894
   7 C :   -0.193005
   8 C :    0.174764
   9 C :    0.310405
  10 C :   -0.169608
  11 N :   -0.067239
  12 C :   -0.169095
  13 N :   -0.069141
  14 C :   -0.198436
  15 C :   -0.174478
  16 H :    0.190745
  17 H :    0.192665
  18 H :    0.189945
  19 H :    0.195409
Sum of atomic charges:   -0.0000000

--------------------------------
MULLIKEN REDUCED ORBITAL CHARGES
--------------------------------
  0 N s       :     3.793950  s :     3.793950
      pz      :     1.069313  p :     3.349993
      px      :     1.213810
      py      :     1.066870
      dz2     :     0.002729  d :     0.040736
      dxz     :     0.014875
      dyz     :     0.000000
      dx2y2   :     0.008174
      dxy     :     0.014957
      f0      :     0.000298  f :     0.001866
      f+1     :     0.000102
      f-1     :     0.000050
      f+2     :     0.000495
      f-2     :     0.000000
      f+3     :     0.000170
      f-3     :     0.000750
  1 C s       :     3.232399  s :     3.232399
      pz      :     0.905072  p :     2.725371
      px      :     0.911507
      py      :     0.908792
      dz2     :     0.004509  d :     0.084650
      dxz     :     0.033584
      dyz     :     0.000841
      dx2y2   :     0.013325
      dxy     :     0.032391
      f0      :     0.001890  f :     0.014025
      f+1     :     0.001466
      f-1     :     0.000336
      f+2     :     0.003170
      f-2     :     0.000021
      f+3     :     0.002435
      f-3     :     0.004707
  2 C s       :     3.031810  s :     3.031810
      pz      :     0.952874  p :     2.522189
      px      :     0.680514
      py      :     0.888801
      dz2     :     0.019934  d :     0.128041
      dxz     :     0.025675
      dyz     :     0.016382
      dx2y2   :     0.035943
      dxy     :     0.030107
      f0      :     0.000650  f :     0.007791
      f+1     :     0.000847
      f-1     :     0.001549
      f+2     :     0.001482
      f-2     :     0.000994
      f+3     :     0.001091
      f-3     :     0.001178
  3 C s       :     3.229278  s :     3.229278
      pz      :     0.910546  p :     2.724324
      px      :     0.911821
      py      :     0.901957
      dz2     :     0.026281  d :     0.085175
      dxz     :     0.013015
      dyz     :     0.011813
      dx2y2   :     0.020295
      dxy     :     0.013771
      f0      :     0.001281  f :     0.014159
      f+1     :     0.001704
      f-1     :     0.002730
      f+2     :     0.002883
      f-2     :     0.002262
      f+3     :     0.001441
      f-3     :     0.001858
  4 N s       :     3.792540  s :     3.792540
      pz      :     1.128494  p :     3.352919
      px      :     1.093305
      py      :     1.131120
      dz2     :     0.010139  d :     0.040549
      dxz     :     0.006496
      dyz     :     0.007550
      dx2y2   :     0.009534
      dxy     :     0.006831
      f0      :     0.000149  f :     0.001849
      f+1     :     0.000239
      f-1     :     0.000390
      f+2     :     0.000451
      f-2     :     0.000163
      f+3     :     0.000174
      f-3     :     0.000283
  5 C s       :     3.165241  s :     3.165241
      pz      :     0.832506  p :     2.528711
      px      :     0.853667
      py      :     0.842538
      dz2     :     0.029641  d :     0.148633
      dxz     :     0.031867
      dyz     :     0.017552
      dx2y2   :     0.036681
      dxy     :     0.032892
      f0      :     0.000897  f :     0.009833
      f+1     :     0.000904
      f-1     :     0.001894
      f+2     :     0.002080
      f-2     :     0.000995
      f+3     :     0.001144
      f-3     :     0.001919
  6 C s       :     3.213693  s :     3.213693
      pz      :     0.976161  p :     2.879468
      px      :     0.894128
      py      :     1.009179
      dz2     :     0.010659  d :     0.086572
      dxz     :     0.016656
      dyz     :     0.012002
      dx2y2   :     0.028265
      dxy     :     0.018989
[...]
      f-1     :     0.000494
      f+2     :     0.000388
      f-2     :     0.000100
      f+3     :     0.000132
      f-3     :     0.000394
 14 C s       :     3.225756  s :     3.225756
      pz      :     0.965301  p :     2.877052
      px      :     0.904694
      py      :     1.007056
      dz2     :     0.011029  d :     0.086625
      dxz     :     0.017454
      dyz     :     0.012929
      dx2y2   :     0.026778
      dxy     :     0.018436
      f0      :     0.000647  f :     0.007322
      f+1     :     0.000581
      f-1     :     0.001453
      f+2     :     0.001394
      f-2     :     0.000714
      f+3     :     0.000883
      f-3     :     0.001649
 15 C s       :     3.222006  s :     3.222006
      pz      :     0.927544  p :     2.871675
      px      :     1.008839
      py      :     0.935292
      dz2     :     0.017894  d :     0.085668
      dxz     :     0.011876
      dyz     :     0.011720
      dx2y2   :     0.026424
      dxy     :     0.017754
      f0      :     0.000417  f :     0.007313
      f+1     :     0.000729
      f-1     :     0.001832
      f+2     :     0.001276
      f-2     :     0.000853
      f+3     :     0.000936
      f-3     :     0.001270
 16 H s       :     0.792953  s :     0.792953
      pz      :     0.007306  p :     0.022683
      px      :     0.006232
      py      :     0.009145
 17 H s       :     0.790639  s :     0.790639
      pz      :     0.004003  p :     0.022642
      px      :     0.014945
      py      :     0.003693
 18 H s       :     0.792967  s :     0.792967
      pz      :     0.007304  p :     0.022684
      px      :     0.006232
      py      :     0.009147
 19 H s       :     0.790644  s :     0.790644
      pz      :     0.004003  p :     0.022640
      px      :     0.014945
      py      :     0.003693


                     *******************************
                     * LOEWDIN POPULATION ANALYSIS *
                     *******************************

----------------------
LOEWDIN ATOMIC CHARGES
----------------------
   0 N :    0.074069
   1 C :   -0.131016
   2 C :   -0.103618
   3 C :   -0.130994
   4 N :    0.073936
   5 C :   -0.039823
   6 C :   -0.046078
   7 C :   -0.046267
   8 C :   -0.039741
   9 C :   -0.103652
  10 C :   -0.130987
  11 N :    0.074006
  12 C :   -0.131015
  13 N :    0.073891
  14 C :   -0.046096
  15 C :   -0.046260
  16 H :    0.174889
  17 H :    0.174933
  18 H :    0.174891
  19 H :    0.174932

-------------------------------
LOEWDIN REDUCED ORBITAL CHARGES
-------------------------------
  0 N s       :     3.298532  s :     3.298532
      pz      :     1.013094  p :     3.502116
      px      :     1.485097
      py      :     1.003925
      dz2     :     0.011521  d :     0.108668
      dxz     :     0.031333
      dyz     :     0.000233
      dx2y2   :     0.034117
      dxy     :     0.031464
      f0      :     0.001746  f :     0.016615
      f+1     :     0.002715
      f-1     :     0.000294
      f+2     :     0.002914
      f-2     :     0.000082
      f+3     :     0.004458
      f-3     :     0.004406
  1 C s       :     2.801192  s :     2.801192
      pz      :     0.847079  p :     2.842827
      px      :     1.153487
      py      :     0.842261
      dz2     :     0.039503  d :     0.425126
      dxz     :     0.135989
      dyz     :     0.003471
      dx2y2   :     0.117192
      dxy     :     0.128972
      f0      :     0.006712  f :     0.061870
      f+1     :     0.009688
      f-1     :     0.001133
      f+2     :     0.011248
      f-2     :     0.000407
      f+3     :     0.015993
      f-3     :     0.016690
  2 C s       :     2.690758  s :     2.690758
      pz      :     0.933565  p :     2.868351
      px      :     0.967907
      py      :     0.966880
      dz2     :     0.065162  d :     0.490660
      dxz     :     0.088923
      dyz     :     0.070858
      dx2y2   :     0.141750
      dxy     :     0.123967
      f0      :     0.005047  f :     0.053848
      f+1     :     0.005620
      f-1     :     0.005699
      f+2     :     0.009824
      f-2     :     0.006691
      f+3     :     0.007998
      f-3     :     0.012970
  3 C s       :     2.801357  s :     2.801357
      pz      :     0.938847  p :     2.842793
      px      :     0.906358
      py      :     0.997588
      dz2     :     0.091184  d :     0.424978
      dxz     :     0.061639
      dyz     :     0.094835
      dx2y2   :     0.091687
      dxy     :     0.085634
      f0      :     0.005416  f :     0.061866
      f+1     :     0.004969
      f-1     :     0.011334
      f+2     :     0.010118
      f-2     :     0.013392
      f+3     :     0.008223
      f-3     :     0.008414
  4 N s       :     3.298560  s :     3.298560
      pz      :     1.156255  p :     3.502216
      px      :     1.100725
      py      :     1.245236
      dz2     :     0.019621  d :     0.108667
      dxz     :     0.016626
      dyz     :     0.026493
      dx2y2   :     0.022505
      dxy     :     0.023423
      f0      :     0.001514  f :     0.016621
      f+1     :     0.001274
      f-1     :     0.002905
      f+2     :     0.002739
      f-2     :     0.003742
      f+3     :     0.002208
      f-3     :     0.002238
  5 C s       :     2.693752  s :     2.693752
      pz      :     0.835136  p :     2.759284
      px      :     1.005775
      py      :     0.918374
      dz2     :     0.079181  d :     0.529144
      dxz     :     0.105920
      dyz     :     0.070659
      dx2y2   :     0.138797
      dxy     :     0.134589
      f0      :     0.005271  f :     0.057642
      f+1     :     0.005731
      f-1     :     0.006455
      f+2     :     0.010779
      f-2     :     0.006520
      f+3     :     0.007725
      f-3     :     0.015161
  6 C s       :     2.754221  s :     2.754221
      pz      :     0.910395  p :     2.881693
      px      :     0.991979
      py      :     0.979319
      dz2     :     0.036075  d :     0.367990
      dxz     :     0.074984
      dyz     :     0.048033
      dx2y2   :     0.102840
      dxy     :     0.106059
      f0      :     0.004041  f :     0.042174
      f+1     :     0.004032
      f-1     :     0.004000
      f+2     :     0.007857
      f-2     :     0.004919
      f+3     :     0.006296
      f-3     :     0.011028
  7 C s       :     2.754173  s :     2.754173
      pz      :     0.906969  p :     2.881941
      px      :     1.001368
      py      :     0.973603
      dz2     :     0.059516  d :     0.367978
      dxz     :     0.042635
      dyz     :     0.069663
      dx2y2   :     0.122228
      dxy     :     0.073936
      f0      :     0.003408  f :     0.042175
      f+1     :     0.004318
      f-1     :     0.005628
      f+2     :     0.007001
      f-2     :     0.006830
      f+3     :     0.005966
      f-3     :     0.009024
  8 C s       :     2.693769  s :     2.693769
      pz      :     0.835146  p :     2.759220
      px      :     1.005767
      py      :     0.918307
      dz2     :     0.079201  d :     0.529117
      dxz     :     0.105926
      dyz     :     0.070653
      dx2y2   :     0.138765
      dxy     :     0.134572
      f0      :     0.005271  f :     0.057635
      f+1     :     0.005732
      f-1     :     0.006456
      f+2     :     0.010780
      f-2     :     0.006519
      f+3     :     0.007723
      f-3     :     0.015155
  9 C s       :     2.690763  s :     2.690763
      pz      :     0.933639  p :     2.868400
      px      :     0.967934
      py      :     0.966827
      dz2     :     0.065190  d :     0.490641
      dxz     :     0.088963
      dyz     :     0.070833
      dx2y2   :     0.141706
      dxy     :     0.123950
      f0      :     0.005049  f :     0.053848
      f+1     :     0.005624
      f-1     :     0.005698
      f+2     :     0.009827
      f-2     :     0.006691
      f+3     :     0.007995
      f-3     :     0.012964
 10 C s       :     2.801198  s :     2.801198
      pz      :     0.847086  p :     2.842771
      px      :     1.153480
      py      :     0.842206
      dz2     :     0.039507  d :     0.425148
      dxz     :     0.136032
      dyz     :     0.003470
      dx2y2   :     0.117176
      dxy     :     0.128964
      f0      :     0.006709  f :     0.061869
      f+1     :     0.009695
      f-1     :     0.001130
      f+2     :     0.011254
      f-2     :     0.000407
      f+3     :     0.015987
      f-3     :     0.016686
 11 N s       :     3.298567  s :     3.298567
      pz      :     1.013214  p :     3.502161
      px      :     1.485063
      py      :     1.003884
      dz2     :     0.011524  d :     0.108657
      dxz     :     0.031337
      dyz     :     0.000233
      dx2y2   :     0.034111
      dxy     :     0.031452
      f0      :     0.001745  f :     0.016610
      f+1     :     0.002716
      f-1     :     0.000293
      f+2     :     0.002916
      f-2     :     0.000082
      f+3     :     0.004455
      f-3     :     0.004403
 12 C s       :     2.801371  s :     2.801371
      pz      :     0.939213  p :     2.842781
      px      :     0.906460
      py      :     0.997107
      dz2     :     0.091332  d :     0.425002
      dxz     :     0.061822
      dyz     :     0.094797
      dx2y2   :     0.091554
      dxy     :     0.085498
      f0      :     0.005426  f :     0.061862
      f+1     :     0.004993
      f-1     :     0.011329
      f+2     :     0.010132
      f-2     :     0.013403
      f+3     :     0.008196
      f-3     :     0.008382
 13 N s       :     3.298594  s :     3.298594
      pz      :     1.156944  p :     3.502241
      px      :     1.100900
      py      :     1.244397
      dz2     :     0.019667  d :     0.108657
      dxz     :     0.016695
      dyz     :     0.026487
      dx2y2   :     0.022443
      dxy     :     0.023364
      f0      :     0.001516  f :     0.016617
      f+1     :     0.001282
      f-1     :     0.002905
      f+2     :     0.002743
      f-2     :     0.003747
      f+3     :     0.002197
      f-3     :     0.002227
 14 C s       :     2.754217  s :     2.754217
      pz      :     0.910371  p :     2.881712
      px      :     0.991979
      py      :     0.979361
      dz2     :     0.036064  d :     0.367992
      dxz     :     0.074974
      dyz     :     0.048028
      dx2y2   :     0.102855
      dxy     :     0.106071
      f0      :     0.004042  f :     0.042175
      f+1     :     0.004032
      f-1     :     0.004000
      f+2     :     0.007857
      f-2     :     0.004918
      f+3     :     0.006297
      f-3     :     0.011029
 15 C s       :     2.754167  s :     2.754167
      pz      :     0.906955  p :     2.881925
      px      :     1.001349
      py      :     0.973621
      dz2     :     0.059515  d :     0.367992
      dxz     :     0.042629
      dyz     :     0.069664
      dx2y2   :     0.122246
      dxy     :     0.073937
      f0      :     0.003408  f :     0.042176
      f+1     :     0.004319
      f-1     :     0.005627
      f+2     :     0.007000
      f-2     :     0.006830
      f+3     :     0.005967
      f-3     :     0.009026
 16 H s       :     0.763667  s :     0.763667
      pz      :     0.019748  p :     0.061444
      px      :     0.017385
      py      :     0.024310
 17 H s       :     0.763632  s :     0.763632
      pz      :     0.011760  p :     0.061435
      px      :     0.038787
      py      :     0.010888
 18 H s       :     0.763665  s :     0.763665
      pz      :     0.019743  p :     0.061445
      px      :     0.017385
      py      :     0.024316
 19 H s       :     0.763636  s :     0.763636
      pz      :     0.011758  p :     0.061431
      px      :     0.038785
      py      :     0.010889


                      *****************************
                      * MAYER POPULATION ANALYSIS *
                      *****************************

  NA   - Mulliken gross atomic population
  ZA   - Total nuclear charge
  QA   - Mulliken gross atomic charge
  VA   - Mayer's total valence
  BVA  - Mayer's bonded valence
  FA   - Mayer's free valence

  ATOM       NA         ZA         QA         VA         BVA        FA
  0 N      7.0443     7.0000    -0.0443     3.0944     3.0944    -0.0000
  1 C      6.1930     6.0000    -0.1930     4.0023     4.0023    -0.0000
  2 C      5.6934     6.0000     0.3066     3.7547     3.7547    -0.0000
  3 C      6.1906     6.0000    -0.1906     3.9967     3.9967    -0.0000
  4 N      7.0475     7.0000    -0.0475     3.0930     3.0930    -0.0000
  5 C      5.8189     6.0000     0.1811     3.7222     3.7222    -0.0000
  6 C      6.1967     6.0000    -0.1967     3.9845     3.9845    -0.0000
  7 C      6.1868     6.0000    -0.1868     3.9732     3.9732    -0.0000
  8 C      5.8184     6.0000     0.1816     3.7215     3.7215    -0.0000
  9 C      5.6940     6.0000     0.3060     3.7553     3.7553    -0.0000
 10 C      6.1926     6.0000    -0.1926     4.0022     4.0022    -0.0000
 11 N      7.0445     7.0000    -0.0445     3.0943     3.0943    -0.0000
 12 C      6.1905     6.0000    -0.1905     3.9967     3.9967    -0.0000
 13 N      7.0475     7.0000    -0.0475     3.0930     3.0930    -0.0000
 14 C      6.1968     6.0000    -0.1968     3.9844     3.9844    -0.0000
 15 C      6.1867     6.0000    -0.1867     3.9732     3.9732    -0.0000
 16 H      0.8156     1.0000     0.1844     0.9725     0.9725    -0.0000
 17 H      0.8133     1.0000     0.1867     0.9706     0.9706    -0.0000
 18 H      0.8157     1.0000     0.1843     0.9725     0.9725    -0.0000
 19 H      0.8133     1.0000     0.1867     0.9706     0.9706    -0.0000

  Mayer bond orders larger than 0.100000
B(  0-N ,  1-C ) :   2.9657 B(  1-C ,  2-C ) :   0.9915 B(  2-C ,  3-C ) :   0.9861 
B(  2-C ,  5-C ) :   1.5692 B(  3-C ,  4-N ) :   2.9649 B(  5-C ,  6-C ) :   1.0344 
B(  5-C , 15-C ) :   1.0257 B(  6-C ,  7-C ) :   1.8461 B(  6-C , 16-H ) :   0.9457 
B(  7-C ,  8-C ) :   1.0256 B(  7-C , 17-H ) :   0.9441 B(  8-C ,  9-C ) :   1.5690 
B(  8-C , 14-C ) :   1.0344 B(  9-C , 10-C ) :   0.9918 B(  9-C , 12-C ) :   0.9862 
B( 10-C , 11-N ) :   2.9655 B( 12-C , 13-N ) :   2.9649 B( 14-C , 15-C ) :   1.8461 
B( 14-C , 18-H ) :   0.9457 B( 15-C , 19-H ) :   0.9441 

-------
TIMINGS
-------

Total SCF time: 0 days 0 hours 7 min 56 sec 

Total time                  ....     476.585 sec
Sum of individual times     ....     475.692 sec  ( 99.8%)

Fock matrix formation       ....     472.969 sec  ( 99.2%)
  XC integration            ....       4.399 sec  (  0.9% of F)
    Basis function eval.    ....       0.922 sec  ( 21.0% of XC)
    Density eval.           ....       1.141 sec  ( 26.0% of XC)
    XC-Functional eval.     ....       0.328 sec  (  7.5% of XC)
    XC-Potential eval.      ....       1.848 sec  ( 42.0% of XC)
Diagonalization             ....       0.152 sec  (  0.0%)
Density matrix formation    ....       0.024 sec  (  0.0%)
Population analysis         ....       0.105 sec  (  0.0%)
Initial guess               ....       0.142 sec  (  0.0%)
Orbital Transformation      ....       0.000 sec  (  0.0%)
Orbital Orthonormalization  ....       0.120 sec  (  0.0%)
DIIS solution               ....       0.044 sec  (  0.0%)
SOSCF solution              ....       0.572 sec  (  0.1%)
Grid generation             ....       1.684 sec  (  0.4%)


-------------------------------------------------------------------------------
                          DFT DISPERSION CORRECTION                            
                                                                               
                              DFTD3 V3.1  Rev 1                                
                              USING zero damping                               
-------------------------------------------------------------------------------
The omegaB97X-D3 functional is recognized. Fit by Chai et al.
Active option DFTDOPT                   ...         3   

molecular C6(AA) [au] = 7662.191313 


            DFT-D V3
 parameters
 s6 scaling factor         :     1.0000 
 rs6 scaling factor        :     1.2810 
 s8 scaling factor         :     1.0000 
 rs8 scaling factor        :     1.0940 
 Damping factor alpha6     :    14.0000 
 Damping factor alpha8     :    16.0000 
 ad hoc parameters k1-k3   :    16.0000     1.3333    -4.0000 

 Edisp/kcal,au: -4.837157338526  -0.007708500066 
 E6   /kcal   :  -2.008067302 
 E8   /kcal   :  -2.829090037 
 % E8         :  58.486624244 

-------------------------   ----------------
Dispersion correction           -0.007708500
-------------------------   ----------------


-------------------------   --------------------
FINAL SINGLE POINT ENERGY      -678.613786569641
-------------------------   --------------------

                                *** OPTIMIZATION RUN DONE ***

                            ***************************************
                            *     ORCA property calculations      *
                            ***************************************

                                    ---------------------
                                    Active property flags
                                    ---------------------
   (+) Dipole Moment


------------------------------------------------------------------------------
                       ORCA ELECTRIC PROPERTIES CALCULATION
------------------------------------------------------------------------------

Dipole Moment Calculation                       ... on
Quadrupole Moment Calculation                   ... off
Polarizability Calculation                      ... off
GBWName                                         ... TCNQ.gbw
Electron density file                           ... TCNQ.scfp
The origin for moment calculation is the CENTER OF MASS  = ( 9.833957,  3.679569 -2.588076)

-------------
DIPOLE MOMENT
-------------
                                X             Y             Z
Electronic contribution:     -0.00003       0.00064      -0.00040
Nuclear contribution   :      0.00014       0.00164       0.00123
                        -----------------------------------------
Total Dipole Moment    :      0.00011       0.00228       0.00083
                        -----------------------------------------
Magnitude (a.u.)       :      0.00243
Magnitude (Debye)      :      0.00618



--------------------
Rotational spectrum 
--------------------
 
Rotational constants in cm-1:     0.038858     0.009276     0.007488 
Rotational constants in MHz :  1164.944985   278.076593   224.490033 

 Dipole components along the rotational axes: 
x,y,z [a.u.] :    -0.001326    -0.000480     0.001979 
x,y,z [Debye]:    -0.003371    -0.001220     0.005030 

 
--------------------------------------------------------------------------
[[8340,1],0]: A high-performance Open MPI point-to-point messaging module
was unable to find any relevant network interfaces:

Module: OpenFabrics (openib)
  Host: compute-0-7

Another transport will be used instead, although this may result in
lower performance.

NOTE: You can disable this warning by setting the MCA parameter
btl_base_warn_component_unused to 0.
--------------------------------------------------------------------------
[compute-0-7.local:19143] 3 more processes have sent help message help-mpi-btl-base.txt / btl:no-nics
[compute-0-7.local:19143] Set MCA parameter "orte_base_help_aggregate" to 0 to see all help / error messages

Timings for individual modules:

Sum of individual times         ...    10819.228 sec (= 180.320 min)
GTO integral calculation        ...        8.478 sec (=   0.141 min)   0.1 %
SCF iterations                  ...     7053.067 sec (= 117.551 min)  65.2 %
SCF Gradient evaluation         ...     3756.008 sec (=  62.600 min)  34.7 %
Geometry relaxation             ...        1.675 sec (=   0.028 min)   0.0 %
                             ****ORCA TERMINATED NORMALLY****
TOTAL RUN TIME: 0 days 3 hours 0 minutes 21 seconds 612 msec
