Warning: no access to tty (Bad file descriptor).
Thus no job control in this shell.

                                 *****************
                                 * O   R   C   A *
                                 *****************

           --- An Ab Initio, DFT and Semiempirical electronic structure package ---

                  #######################################################
                  #                        -***-                        #
                  #          Department of theory and spectroscopy      #
                  #               Directorship: Frank Neese             #
                  #        Max Planck Institute fuer Kohlenforschung    #
                  #                Kaiser Wilhelm Platz 1               #
                  #                 D-45470 Muelheim/Ruhr               #
                  #                      Germany                        #
                  #                                                     #
                  #                  All rights reserved                #
                  #                        -***-                        #
                  #######################################################


                         Program Version 4.2.1 -  RELEASE  -


 With contributions from (in alphabetic order):
   Daniel Aravena         : Magnetic Suceptibility
   Michael Atanasov       : Ab Initio Ligand Field Theory (pilot matlab implementation)
   Alexander A. Auer      : GIAO ZORA, VPT2
   Ute Becker             : Parallelization
   Giovanni Bistoni       : ED, misc. LED, open-shell LED, HFLD
   Martin Brehm           : Molecular dynamics
   Dmytro Bykov           : SCF Hessian
   Vijay G. Chilkuri      : MRCI spin determinant printing, contributions to CSF-ICE
   Dipayan Datta          : RHF DLPNO-CCSD density
   Achintya Kumar Dutta   : EOM-CC, STEOM-CC
   Dmitry Ganyushin       : Spin-Orbit,Spin-Spin,Magnetic field MRCI
   Miquel Garcia          : C-PCM Hessian, Gaussian charge scheme
   Yang Guo               : DLPNO-NEVPT2, CIM, IAO-localization
   Andreas Hansen         : Spin unrestricted coupled pair/coupled cluster methods
   Benjamin Helmich-Paris : CASSCF linear response (MC-RPA)
   Lee Huntington         : MR-EOM, pCC
   Robert Izsak           : Overlap fitted RIJCOSX, COSX-SCS-MP3, EOM
   Christian Kollmar      : KDIIS, OOCD, Brueckner-CCSD(T), CCSD density
   Simone Kossmann        : Meta GGA functionals, TD-DFT gradient, OOMP2, MP2 Hessian
   Martin Krupicka        : AUTO-CI
   Lucas Lang             : DCDCAS
   Dagmar Lenk            : GEPOL surface, SMD
   Dimitrios Liakos       : Extrapolation schemes; Compound Job, initial MDCI parallelization
   Dimitrios Manganas     : Further ROCIS development; embedding schemes
   Dimitrios Pantazis     : SARC Basis sets
   Taras Petrenko         : DFT Hessian,TD-DFT gradient, ASA, ECA, R-Raman, ABS, FL, XAS/XES, NRVS
   Peter Pinski           : DLPNO-MP2, DLPNO-MP2 Gradient
   Christoph Reimann      : Effective Core Potentials
   Marius Retegan         : Local ZFS, SOC
   Christoph Riplinger    : Optimizer, TS searches, QM/MM, DLPNO-CCSD(T), (RO)-DLPNO pert. Triples
   Tobias Risthaus        : Range-separated hybrids, TD-DFT gradient, RPA, STAB
   Michael Roemelt        : Original ROCIS implementation
   Masaaki Saitow         : Open-shell DLPNO-CCSD energy and density
   Barbara Sandhoefer     : DKH picture change effects
   Avijit Sen             : IP-ROCIS
   Kantharuban Sivalingam : CASSCF convergence, NEVPT2, FIC-MRCI
   Bernardo de Souza      : ESD, SOC TD-DFT
   Georgi Stoychev        : AutoAux, RI-MP2 NMR
   Willem Van den Heuvel  : Paramagnetic NMR
   Boris Wezisla          : Elementary symmetry handling
   Frank Wennmohs         : Technical directorship


 We gratefully acknowledge several colleagues who have allowed us to
 interface, adapt or use parts of their codes:
   Stefan Grimme, W. Hujo, H. Kruse,             : VdW corrections, initial TS optimization,
                  C. Bannwarth                     DFT functionals, gCP, sTDA/sTD-DF
   Ed Valeev, F. Pavosevic, A. Kumar             : LibInt (2-el integral package), F12 methods
   Garnet Chan, S. Sharma, J. Yang, R. Olivares  : DMRG
   Ulf Ekstrom                                   : XCFun DFT Library
   Mihaly Kallay                                 : mrcc  (arbitrary order and MRCC methods)
   Andreas Klamt, Michael Diedenhofen            : otool_cosmo (COSMO solvation model)
   Jiri Pittner, Ondrej Demel                    : Mk-CCSD
   Frank Weinhold                                : gennbo (NPA and NBO analysis)
   Christopher J. Cramer and Donald G. Truhlar   : smd solvation model
   Lars Goerigk                                  : TD-DFT with DH, B97 family of functionals
   V. Asgeirsson, H. Jonsson                     : NEB implementation
   FAccTs GmbH                                   : IRC, NEB, NEB-TS, Multilevel, MM, QM/MM, CI optimization
   S Lehtola, MJT Oliveira, MAL Marques          : LibXC Library


 Your calculation uses the libint2 library for the computation of 2-el integrals
 For citations please refer to: http://libint.valeyev.net

 Your ORCA version has been built with support for libXC version: 4.2.3
 For citations please refer to: https://tddft.org/programs/libxc/

 This ORCA versions uses:
   CBLAS   interface :  Fast vector & matrix operations
   LAPACKE interface :  Fast linear algebra routines
   SCALAPACK package :  Parallel linear algebra routines


Your calculation utilizes the atom-pairwise dispersion correction
with the zero-damping scheme (D30)
Cite in your paper:
S.Grimme, J.Antony, S.Ehrlich and H.Krieg, J.Chem.Phys., 132, (2010), 154104 
   

XCFun DFT library Copyright 2009-2010 Ulf Ekstrom and contributors.
See http://admol.org/xcfun for more information. This is free soft-
ware; see the source code for copying conditions. There is ABSOLUTELY
NO WARRANTY; not even for MERCHANTABILITY or FITNESS FOR A PARTICULAR
PURPOSE. For details see the documentation. Scientific users of this 
library should cite U. Ekstrom, L. Visscher, R. Bast, A. J. Thorvald-
sen and K. Ruud; J.Chem.Theor.Comp. 2010, DOI: 10.1021/ct100117s
XCFun Version 0.99 
----- Orbital basis set information -----
Your calculation utilizes the basis: def2-TZVP
   F. Weigend and R. Ahlrichs, Phys. Chem. Chem. Phys. 7, 3297 (2005).

----- AuxJ basis set information -----
Your calculation utilizes the auxiliary basis: def2/J
   F. Weigend, Phys. Chem. Chem. Phys. 8, 1057 (2006).

================================================================================
                                        WARNINGS
                       Please study these warnings very carefully!
================================================================================


WARNING: Geometry Optimization
  ===> : Switching off AutoStart
         For restart on a previous wavefunction, please use MOREAD

INFO   : the flag for use of LIBINT has been found!

================================================================================
                                       INPUT FILE
================================================================================
NAME = TAM.inp
|  1> # avogadro generated ORCA input file 
|  2> # Basic Mode
|  3> # 
|  4> ! wB97X-D3 OPT def2-TZVP def2/J CPCM
|  5> %cpcm
|  6>   epsilon 3
|  7> end
|  8> %pal
|  9>  nprocs 4
| 10> end
| 11> 
| 12> * xyz 0 1
| 13>    C        4.08551        2.67564        0.50903
| 14>    C        3.39664        3.99799        0.18638
| 15>    C        3.19296        1.52197        0.06174
| 16>    H        4.24814        2.60811        1.60734
| 17>    H        5.07130        2.61900       -0.00077
| 18>    N        2.08004        4.04979        0.85047
| 19>    H        3.28444        4.10160       -0.91784
| 20>    H        4.04369        4.82629        0.55065
| 21>    N        1.87882        1.63359        0.71788
| 22>    H        3.68920        0.56889        0.35010
| 23>    H        3.07256        1.53710       -1.04566
| 24>    C        1.21815        2.92738        0.39530
| 25>    C        1.03675        0.43114        0.48634
| 26>    C        1.43893        5.35105        0.58664
| 27>    C        0.10116        5.42149        1.31407
| 28>    H        1.27967        5.49757       -0.50684
| 29>    H        2.08294        6.17754        0.96028
| 30>    C       -0.78295        4.27317        0.84079
| 31>    H       -0.39549        6.39526        1.11417
| 32>    H        0.27336        5.32709        2.40899
| 33>    C       -0.99471        1.83617        0.79277
| 34>    C       -0.33374        0.77837       -0.09541
| 35>    N       -0.10092        2.98922        1.07918
| 36>    H       -1.01150        4.39206       -0.24314
| 37>    H       -1.73871        4.31200        1.40907
| 38>    H       -1.25604        1.37019        1.76710
| 39>    H       -1.95092        2.14229        0.31013
| 40>    H        1.06732        3.00917       -0.70943
| 41>    H        0.89026       -0.06963        1.46758
| 42>    H        1.52581       -0.30941       -0.18651
| 43>    H       -0.20102        1.18457       -1.12134
| 44>    H       -0.97507       -0.12574       -0.17435
| 45> *
| 46> 
| 47> 
| 48>                          ****END OF INPUT****
================================================================================

                       *****************************
                       * Geometry Optimization Run *
                       *****************************

Geometry optimization settings:
Update method            Update   .... BFGS
Choice of coordinates    CoordSys .... Z-matrix Internals
Initial Hessian          InHess   .... Almoef's Model

Convergence Tolerances:
Energy Change            TolE     ....  5.0000e-06 Eh
Max. Gradient            TolMAXG  ....  3.0000e-04 Eh/bohr
RMS Gradient             TolRMSG  ....  1.0000e-04 Eh/bohr
Max. Displacement        TolMAXD  ....  4.0000e-03 bohr
RMS Displacement         TolRMSD  ....  2.0000e-03 bohr
Strict Convergence                ....  False
------------------------------------------------------------------------------
                        ORCA OPTIMIZATION COORDINATE SETUP
------------------------------------------------------------------------------

The optimization will be done in new redundant internal coordinates
Making redundant internal coordinates   ...  (new redundants) done
Evaluating the initial hessian          ...  (Almloef) done
Evaluating the coordinates              ...  done
Calculating the B-matrix                .... done
Calculating the G-matrix                .... done
Diagonalizing the G-matrix              .... done
The first mode is                       ....  121
The number of degrees of freedom        ....   90

    -----------------------------------------------------------------
                    Redundant Internal Coordinates


    -----------------------------------------------------------------
         Definition                    Initial Value    Approx d2E/dq
    -----------------------------------------------------------------
      1. B(C   1,C   0)                  1.5255         0.379754   
      2. B(C   2,C   0)                  1.5257         0.379565   
      3. B(H   3,C   0)                  1.1123         0.331731   
      4. B(H   4,C   0)                  1.1113         0.333053   
      5. B(N   5,C   1)                  1.4755         0.408740   
      6. B(H   6,C   1)                  1.1147         0.328826   
      7. B(H   7,C   1)                  1.1124         0.331647   
      8. B(N   8,C   2)                  1.4731         0.412419   
      9. B(H   9,C   2)                  1.1125         0.331472   
     10. B(H  10,C   2)                  1.1140         0.329676   
     11. B(C  11,N   8)                  1.4881         0.390271   
     12. B(C  11,N   5)                  1.4866         0.392493   
     13. B(C  12,N   8)                  1.4861         0.393105   
     14. B(C  13,N   5)                  1.4744         0.410387   
     15. B(C  14,C  13)                  1.5244         0.381363   
     16. B(H  15,C  13)                  1.1147         0.328878   
     17. B(H  16,C  13)                  1.1124         0.331650   
     18. B(C  17,C  14)                  1.5246         0.381116   
     19. B(H  18,C  14)                  1.1112         0.333073   
     20. B(H  19,C  14)                  1.1124         0.331665   
     21. B(C  21,C  20)                  1.5312         0.371881   
     22. B(C  21,C  12)                  1.5288         0.375218   
     23. B(N  22,C  20)                  1.4867         0.392213   
     24. B(N  22,C  17)                  1.4733         0.412121   
     25. B(N  22,C  11)                  1.4871         0.391707   
     26. B(H  23,C  17)                  1.1141         0.329559   
     27. B(H  24,C  17)                  1.1126         0.331384   
     28. B(H  25,C  20)                  1.1112         0.333128   
     29. B(H  26,C  20)                  1.1140         0.329715   
     30. B(H  27,C  11)                  1.1180         0.324931   
     31. B(H  28,C  12)                  1.1113         0.332956   
     32. B(H  29,C  12)                  1.1137         0.330078   
     33. B(H  30,C  21)                  1.1114         0.332910   
     34. B(H  31,C  21)                  1.1113         0.333017   
     35. A(C   1,C   0,H   3)          109.1157         0.320848   
     36. A(C   2,C   0,H   4)          110.2387         0.321031   
     37. A(H   3,C   0,H   4)          108.6740         0.283655   
     38. A(C   2,C   0,H   3)          109.2145         0.320822   
     39. A(C   1,C   0,C   2)          109.2251         0.365365   
     40. A(C   1,C   0,H   4)          110.3486         0.321057   
     41. A(N   5,C   1,H   6)          110.6560         0.322335   
     42. A(C   0,C   1,N   5)          109.7653         0.367724   
     43. A(C   0,C   1,H   7)          108.2711         0.320835   
     44. A(C   0,C   1,H   6)          109.6043         0.320387   
     45. A(H   6,C   1,H   7)          108.2831         0.283082   
     46. A(N   5,C   1,H   7)          110.2123         0.322787   
     47. A(C   0,C   2,H   9)          108.1108         0.320781   
     48. A(C   0,C   2,N   8)          109.5128         0.368258   
     49. A(N   8,C   2,H  10)          110.2018         0.322946   
     50. A(C   0,C   2,H  10)          110.1445         0.320496   
     51. A(H   9,C   2,H  10)          108.5110         0.283172   
     52. A(N   8,C   2,H   9)          110.3271         0.323234   
     53. A(C  11,N   5,C  13)          111.0679         0.367756   
     54. A(C   1,N   5,C  13)          109.7819         0.370327   
     55. A(C   1,N   5,C  11)          110.6729         0.367503   
     56. A(C   2,N   8,C  11)          111.4317         0.367710   
     57. A(C  11,N   8,C  12)          114.7166         0.364700   
     58. A(C   2,N   8,C  12)          112.0107         0.368166   
     59. A(N   5,C  11,H  27)          108.9988         0.319580   
     60. A(N  22,C  11,H  27)          109.3729         0.319476   
     61. A(N   8,C  11,H  27)          109.7374         0.319284   
     62. A(N   5,C  11,N   8)          109.4309         0.364603   
     63. A(N   8,C  11,N  22)          109.2852         0.364478   
     64. A(N   5,C  11,N  22)          110.0032         0.364832   
     65. A(N   8,C  12,H  28)          107.5607         0.320939   
     66. A(C  21,C  12,H  28)          108.6726         0.320411   
     67. A(N   8,C  12,H  29)          112.5399         0.320484   
     68. A(N   8,C  12,C  21)          112.5481         0.364524   
     69. A(C  21,C  12,H  29)          108.3479         0.319957   
     70. A(H  28,C  12,H  29)          106.9593         0.283422   
     71. A(H  15,C  13,H  16)          108.3336         0.283089   
     72. A(C  14,C  13,H  16)          108.2671         0.321057   
     73. A(N   5,C  13,H  16)          110.1137         0.323000   
     74. A(C  14,C  13,H  15)          109.6735         0.320617   
     75. A(N   5,C  13,H  15)          110.7117         0.322556   
     76. A(N   5,C  13,C  14)          109.6933         0.368245   
     77. A(H  18,C  14,H  19)          108.7001         0.283649   
     78. A(C  17,C  14,H  19)          109.3546         0.321025   
     79. A(C  13,C  14,H  19)          109.2645         0.321059   
     80. A(C  13,C  14,H  18)          110.2960         0.321282   
     81. A(C  13,C  14,C  17)          109.0246         0.365885   
     82. A(C  17,C  14,H  18)          110.1824         0.321248   
     83. A(H  23,C  17,H  24)          108.4800         0.283145   
     84. A(N  22,C  17,H  24)          110.2086         0.323181   
     85. A(C  14,C  17,H  24)          108.2587         0.320981   
     86. A(N  22,C  17,H  23)          110.2056         0.322889   
     87. A(C  14,C  17,H  23)          109.9140         0.320691   
     88. A(C  14,C  17,N  22)          109.7386         0.368470   
     89. A(H  25,C  20,H  26)          107.0529         0.283396   
     90. A(N  22,C  20,H  26)          112.7286         0.320307   
     91. A(C  21,C  20,H  26)          108.0018         0.319433   
     92. A(N  22,C  20,H  25)          107.3194         0.320847   
     93. A(C  21,C  20,H  25)          108.6885         0.319971   
     94. A(C  21,C  20,N  22)          112.8303         0.363826   
     95. A(C  12,C  21,C  20)          108.8528         0.363342   
     96. A(H  30,C  21,H  31)          107.4997         0.283806   
     97. A(C  20,C  21,H  31)          110.7394         0.319953   
     98. A(C  12,C  21,H  31)          111.0752         0.320421   
     99. A(C  20,C  21,H  30)          109.5426         0.319937   
    100. A(C  12,C  21,H  30)          109.1008         0.320404   
    101. A(C  17,N  22,C  20)          111.4948         0.367977   
    102. A(C  11,N  22,C  20)          114.3559         0.364788   
    103. A(C  11,N  22,C  17)          111.8672         0.367896   
    104. D(N   5,C   1,C   0,H   4)    179.0345         0.011495   
    105. D(H   7,C   1,C   0,H   3)     58.7213         0.011495   
    106. D(N   5,C   1,C   0,C   2)     57.6968         0.011495   
    107. D(H   7,C   1,C   0,H   4)    -60.6169         0.011495   
    108. D(N   5,C   1,C   0,H   3)    -61.6272         0.011495   
    109. D(H   6,C   1,C   0,H   4)     57.3064         0.011495   
    110. D(H   7,C   1,C   0,C   2)    178.0454         0.011495   
    111. D(H   6,C   1,C   0,H   3)    176.6446         0.011495   
    112. D(H   6,C   1,C   0,C   2)    -64.0313         0.011495   
    113. D(H   9,C   2,C   0,C   1)   -177.2751         0.011484   
    114. D(N   8,C   2,C   0,H   4)   -178.4374         0.011484   
    115. D(N   8,C   2,C   0,H   3)     62.2299         0.011484   
    116. D(H   9,C   2,C   0,H   3)    -58.0122         0.011484   
    117. D(H  10,C   2,C   0,H   4)    -57.0894         0.011484   
    118. D(H  10,C   2,C   0,H   3)   -176.4221         0.011484   
    119. D(N   8,C   2,C   0,C   1)    -57.0330         0.011484   
    120. D(H   9,C   2,C   0,H   4)     61.3205         0.011484   
    121. D(H  10,C   2,C   0,C   1)     64.3150         0.011484   
    122. D(C  13,N   5,C   1,H   7)     58.4101         0.014254   
    123. D(C  13,N   5,C   1,H   6)    -61.3297         0.014254   
    124. D(C  11,N   5,C   1,C   0)    -59.4690         0.014254   
    125. D(C  13,N   5,C   1,C   0)    177.5733         0.014254   
    126. D(C  11,N   5,C   1,H   6)     61.6279         0.014254   
    127. D(C  11,N   5,C   1,H   7)   -178.6323         0.014254   
    128. D(C  12,N   8,C   2,H  10)     67.3874         0.014508   
    129. D(C  12,N   8,C   2,H   9)    -52.4194         0.014508   
    130. D(C  12,N   8,C   2,C   0)   -171.2992         0.014508   
    131. D(C  11,N   8,C   2,C   0)     58.6712         0.014508   
    132. D(C  11,N   8,C   2,H  10)    -62.6422         0.014508   
    133. D(C  11,N   8,C   2,H   9)    177.5510         0.014508   
    134. D(N   8,C  11,N   5,C   1)     59.5947         0.013164   
    135. D(N   5,C  11,N   8,C  12)    171.8721         0.013020   
    136. D(H  27,C  11,N   8,C   2)     60.0334         0.013020   
    137. D(H  27,C  11,N   8,C  12)    -68.5687         0.013020   
    138. D(N  22,C  11,N   8,C  12)     51.3594         0.013020   
    139. D(N  22,C  11,N   8,C   2)    179.9615         0.013020   
    140. D(N   5,C  11,N   8,C   2)    -59.5258         0.013020   
    141. D(H  27,C  11,N   5,C  13)     61.7902         0.013164   
    142. D(H  27,C  11,N   5,C   1)    -60.4181         0.013164   
    143. D(N  22,C  11,N   5,C  13)    -58.1230         0.013164   
    144. D(N  22,C  11,N   5,C   1)    179.6687         0.013164   
    145. D(N   8,C  11,N   5,C  13)   -178.1970         0.013164   
    146. D(H  29,C  12,N   8,C  11)    125.0507         0.013204   
    147. D(H  29,C  12,N   8,C   2)     -3.2610         0.013204   
    148. D(H  28,C  12,N   8,C  11)   -117.3946         0.013204   
    149. D(H  28,C  12,N   8,C   2)    114.2938         0.013204   
    150. D(C  21,C  12,N   8,C  11)      2.2751         0.013204   
    151. D(C  21,C  12,N   8,C   2)   -126.0365         0.013204   
    152. D(H  16,C  13,N   5,C  11)    178.3229         0.014367   
    153. D(H  15,C  13,N   5,C  11)    -61.9023         0.014367   
    154. D(C  14,C  13,N   5,C  11)     59.2698         0.014367   
    155. D(C  14,C  13,N   5,C   1)   -178.0058         0.014367   
    156. D(H  15,C  13,N   5,C   1)     60.8221         0.014367   
    157. D(H  16,C  13,N   5,C   1)    -58.9527         0.014367   
    158. D(H  19,C  14,C  13,H  15)   -177.1028         0.011587   
    159. D(H  19,C  14,C  13,N   5)     61.1015         0.011587   
    160. D(H  18,C  14,C  13,H  16)     60.3486         0.011587   
    161. D(H  18,C  14,C  13,H  15)    -57.6721         0.011587   
    162. D(H  18,C  14,C  13,N   5)   -179.4678         0.011587   
    163. D(C  17,C  14,C  13,H  16)   -178.5454         0.011587   
    164. D(C  17,C  14,C  13,H  15)     63.4339         0.011587   
    165. D(H  19,C  14,C  13,H  16)    -59.0822         0.011587   
    166. D(C  17,C  14,C  13,N   5)    -58.3618         0.011587   
    167. D(H  24,C  17,C  14,H  19)     58.3137         0.011573   
    168. D(H  24,C  17,C  14,C  13)    177.7210         0.011573   
    169. D(H  23,C  17,C  14,H  19)    176.6422         0.011573   
    170. D(H  23,C  17,C  14,H  18)     57.2249         0.011573   
    171. D(H  23,C  17,C  14,C  13)    -63.9505         0.011573   
    172. D(N  22,C  17,C  14,H  19)    -62.0070         0.011573   
    173. D(H  24,C  17,C  14,H  18)    -61.1036         0.011573   
    174. D(N  22,C  17,C  14,H  18)    178.5756         0.011573   
    175. D(N  22,C  17,C  14,C  13)     57.4003         0.011573   
    176. D(H  31,C  21,C  20,H  26)    -62.4036         0.011049   
    177. D(H  31,C  21,C  20,H  25)     53.4091         0.011049   
    178. D(H  31,C  21,C  20,N  22)    172.3155         0.011049   
    179. D(H  30,C  21,C  20,H  25)    171.8073         0.011049   
    180. D(H  30,C  21,C  20,N  22)    -69.2863         0.011049   
    181. D(C  12,C  21,C  20,H  26)    175.2118         0.011049   
    182. D(C  12,C  21,C  20,H  25)    -68.9756         0.011049   
    183. D(C  12,C  21,C  20,N  22)     49.9308         0.011049   
    184. D(H  31,C  21,C  12,H  29)     59.9378         0.011236   
    185. D(H  31,C  21,C  12,H  28)    -55.9410         0.011236   
    186. D(H  31,C  21,C  12,N   8)   -174.9637         0.011236   
    187. D(H  30,C  21,C  12,H  29)    -58.3880         0.011236   
    188. D(H  30,C  21,C  12,H  28)   -174.2668         0.011236   
    189. D(H  30,C  21,C  20,H  26)     55.9946         0.011049   
    190. D(H  30,C  21,C  12,N   8)     66.7105         0.011236   
    191. D(C  20,C  21,C  12,H  29)   -177.8806         0.011236   
    192. D(C  20,C  21,C  12,H  28)     66.2406         0.011236   
    193. D(C  20,C  21,C  12,N   8)    -52.7821         0.011236   
    194. D(C  17,N  22,C  20,H  26)      8.6107         0.013146   
    195. D(C  17,N  22,C  20,C  21)    131.2872         0.013146   
    196. D(C  11,N  22,C  20,H  26)   -119.5358         0.013146   
    197. D(C  11,N  22,C  20,H  25)    122.8399         0.013146   
    198. D(C  20,N  22,C  17,H  24)     53.6511         0.014487   
    199. D(C  20,N  22,C  17,H  23)    -66.0444         0.014487   
    200. D(C  20,N  22,C  17,C  14)    172.7803         0.014487   
    201. D(C  11,N  22,C  17,H  24)   -176.8815         0.014487   
    202. D(C  11,N  22,C  17,H  23)     63.4230         0.014487   
    203. D(C  11,N  22,C  17,C  14)    -57.7524         0.014487   
    204. D(C  20,N  22,C  11,H  27)     65.8562         0.013113   
    205. D(C  11,N  22,C  20,C  21)      3.1406         0.013146   
    206. D(C  20,N  22,C  11,N   8)    -54.2958         0.013113   
    207. D(C  20,N  22,C  11,N   5)   -174.4580         0.013113   
    208. D(C  17,N  22,C  11,H  27)    -62.1012         0.013113   
    209. D(C  17,N  22,C  20,H  25)   -109.0136         0.013146   
    210. D(C  17,N  22,C  11,N   8)    177.7468         0.013113   
    211. D(C  17,N  22,C  11,N   5)     57.5846         0.013113   
    -----------------------------------------------------------------

Number of atoms                         .... 32
Number of degrees of freedom            .... 211

         *************************************************************
         *                GEOMETRY OPTIMIZATION CYCLE   1            *
         *************************************************************
---------------------------------
CARTESIAN COORDINATES (ANGSTROEM)
---------------------------------
  C      4.085510    2.675640    0.509030
  C      3.396640    3.997990    0.186380
  C      3.192960    1.521970    0.061740
  H      4.248140    2.608110    1.607340
  H      5.071300    2.619000   -0.000770
  N      2.080040    4.049790    0.850470
  H      3.284440    4.101600   -0.917840
  H      4.043690    4.826290    0.550650
  N      1.878820    1.633590    0.717880
  H      3.689200    0.568890    0.350100
  H      3.072560    1.537100   -1.045660
  C      1.218150    2.927380    0.395300
  C      1.036750    0.431140    0.486340
  C      1.438930    5.351050    0.586640
  C      0.101160    5.421490    1.314070
  H      1.279670    5.497570   -0.506840
  H      2.082940    6.177540    0.960280
  C     -0.782950    4.273170    0.840790
  H     -0.395490    6.395260    1.114170
  H      0.273360    5.327090    2.408990
  C     -0.994710    1.836170    0.792770
  C     -0.333740    0.778370   -0.095410
  N     -0.100920    2.989220    1.079180
  H     -1.011500    4.392060   -0.243140
  H     -1.738710    4.312000    1.409070
  H     -1.256040    1.370190    1.767100
  H     -1.950920    2.142290    0.310130
  H      1.067320    3.009170   -0.709430
  H      0.890260   -0.069630    1.467580
  H      1.525810   -0.309410   -0.186510
  H     -0.201020    1.184570   -1.121340
  H     -0.975070   -0.125740   -0.174350

----------------------------
CARTESIAN COORDINATES (A.U.)
----------------------------
  NO LB      ZA    FRAG     MASS         X           Y           Z
   0 C     6.0000    0    12.011    7.720495    5.056227    0.961927
   1 C     6.0000    0    12.011    6.418719    7.555106    0.352207
   2 C     6.0000    0    12.011    6.033820    2.876106    0.116672
   3 H     1.0000    0     1.008    8.027821    4.928614    3.037432
   4 H     1.0000    0     1.008    9.583368    4.949193   -0.001455
   5 N     7.0000    0    14.007    3.930706    7.652994    1.607155
   6 H     1.0000    0     1.008    6.206692    7.750901   -1.734466
   7 H     1.0000    0     1.008    7.641467    9.120366    1.040578
   8 N     7.0000    0    14.007    3.550455    3.087038    1.356597
   9 H     1.0000    0     1.008    6.971578    1.075046    0.661593
  10 H     1.0000    0     1.008    5.806297    2.904698   -1.976011
  11 C     6.0000    0    12.011    2.301970    5.531946    0.747009
  12 C     6.0000    0    12.011    1.959174    0.814737    0.919049
  13 C     6.0000    0    12.011    2.719184   10.112019    1.108589
  14 C     6.0000    0    12.011    0.191165   10.245131    2.483232
  15 H     1.0000    0     1.008    2.418226   10.388902   -0.957789
  16 H     1.0000    0     1.008    3.936186   11.673859    1.814666
  17 C     6.0000    0    12.011   -1.479561    8.075121    1.588863
  18 H     1.0000    0     1.008   -0.747368   12.085290    2.105476
  19 H     1.0000    0     1.008    0.516576   10.066741    4.552331
  20 C     6.0000    0    12.011   -1.879729    3.469858    1.498118
  21 C     6.0000    0    12.011   -0.630677    1.470906   -0.180299
  22 N     7.0000    0    14.007   -0.190711    5.648807    2.039355
  23 H     1.0000    0     1.008   -1.911458    8.299791   -0.459468
  24 H     1.0000    0     1.008   -3.285686    8.148499    2.662756
  25 H     1.0000    0     1.008   -2.373572    2.589284    3.339335
  26 H     1.0000    0     1.008   -3.686705    4.048341    0.586061
  27 H     1.0000    0     1.008    2.016942    5.686507   -1.340628
  28 H     1.0000    0     1.008    1.682348   -0.131582    2.773324
  29 H     1.0000    0     1.008    2.883363   -0.584700   -0.352453
  30 H     1.0000    0     1.008   -0.379873    2.238513   -2.119026
  31 H     1.0000    0     1.008   -1.842615   -0.237614   -0.329474

--------------------------------
INTERNAL COORDINATES (ANGSTROEM)
--------------------------------
 C      0   0   0     0.000000000000     0.00000000     0.00000000
 C      1   0   0     1.525534143145     0.00000000     0.00000000
 C      1   2   0     1.525669792419   109.22508055     0.00000000
 H      1   2   3     1.112337032513   109.11573117   240.67595607
 H      1   2   3     1.111254270498   110.34855637   121.33773457
 N      2   1   3     1.475511547939   109.76525357    57.69680797
 H      2   1   3     1.114731214464   109.60431977   295.96868102
 H      2   1   3     1.112406052393   108.27112835   178.04537214
 N      3   1   2     1.473072524895   109.51279799   302.96701512
 H      3   1   2     1.112549825221   108.11076606   182.72488263
 H      3   1   2     1.114028651741   110.14449055    64.31500801
 C      6   2   1     1.486552491202   110.67288799   300.53099685
 C      9   3   1     1.486128749133   112.01067601   188.70078404
 C      6   2   1     1.474417135210   109.78188708   177.57332860
 C     14   6   2     1.524383406955   109.69331393   181.99419201
 H     14   6   2     1.114688462486   110.71174504    60.82206510
 H     14   6   2     1.112403456395   110.11366620   301.04728994
 C     15  14   6     1.524560026008   109.02464608   301.63822366
 H     15  14   6     1.111237708773   110.29603733   180.53221024
 H     15  14   6     1.112391121144   109.26446735    61.10149685
 C     18  15  14     2.446654290659   143.75794928    64.30342882
 C     13   9   3     1.528804950116   112.54813282   233.96347971
 N     18  15  14     1.473269261031   109.73862267    57.40027436
 H     18  15  14     1.114124849153   109.91399912   296.04954338
 H     18  15  14     1.112621725880   108.25872643   177.72099543
 H     21  18  15     1.111192907735   114.88775715    72.71161468
 H     21  18  15     1.113996583523    78.99381506   176.54528390
 H     12   6   2     1.117974805575   108.99876035   299.58185591
 H     13   9   3     1.111333366097   107.56069753   114.29377126
 H     13   9   3     1.113697045251   112.53991155   356.73902095
 H     22  13   9     1.111370956657   109.10079384    66.71049619
 H     22  13   9     1.111283305283   111.07521363   185.03633222

---------------------------
INTERNAL COORDINATES (A.U.)
---------------------------
 C      0   0   0     0.000000000000     0.00000000     0.00000000
 C      1   0   0     2.882841738490     0.00000000     0.00000000
 C      1   2   0     2.883098078468   109.22508055     0.00000000
 H      1   2   3     2.102012360068   109.11573117   240.67595607
 H      1   2   3     2.099966236392   110.34855637   121.33773457
 N      2   1   3     2.788312733042   109.76525357    57.69680797
 H      2   1   3     2.106536708270   109.60431977   295.96868102
 H      2   1   3     2.102142788739   108.27112835   178.04537214
 N      3   1   2     2.783703647455   109.51279799   302.96701512
 H      3   1   2     2.102414480010   108.11076606   182.72488263
 H      3   1   2     2.105209057132   110.14449055    64.31500801
 C      6   2   1     2.809177092071   110.67288799   300.53099685
 C      9   3   1     2.808376335609   112.01067601   188.70078404
 C      6   2   1     2.786244592707   109.78188708   177.57332860
 C     14   6   2     2.880667162239   109.69331393   181.99419201
 H     14   6   2     2.106455918741   110.71174504    60.82206510
 H     14   6   2     2.102137883014   110.11366620   301.04728994
 C     15  14   6     2.881000923878   109.02464608   301.63822366
 H     15  14   6     2.099934939268   110.29603733   180.53221024
 H     15  14   6     2.102114572768   109.26446735    61.10149685
 C     18  15  14     4.623506553729   143.75794928    64.30342882
 C     13   9   3     2.889022667903   112.54813282   233.96347971
 N     18  15  14     2.784075424874   109.73862267    57.40027436
 H     18  15  14     2.105390843895   109.91399912   296.04954338
 H     18  15  14     2.102550352564   108.25872643   177.72099543
 H     21  18  15     2.099850277574   114.88775715    72.71161468
 H     21  18  15     2.105148456982    78.99381506   176.54528390
 H     12   6   2     2.112666207160   108.99876035   299.58185591
 H     13   9   3     2.100115705412   107.56069753   114.29377126
 H     13   9   3     2.104582411681   112.53991155   356.73902095
 H     22  13   9     2.100186741275   109.10079384    66.71049619
 H     22  13   9     2.100021104183   111.07521363   185.03633222

---------------------
BASIS SET INFORMATION
---------------------
There are 3 groups of distinct atoms

 Group   1 Type C   : 11s6p2d1f contracted to 5s3p2d1f pattern {62111/411/11/1}
 Group   2 Type H   : 5s1p contracted to 3s1p pattern {311/1}
 Group   3 Type N   : 11s6p2d1f contracted to 5s3p2d1f pattern {62111/411/11/1}

Atom   0C    basis set group =>   1
Atom   1C    basis set group =>   1
Atom   2C    basis set group =>   1
Atom   3H    basis set group =>   2
Atom   4H    basis set group =>   2
Atom   5N    basis set group =>   3
Atom   6H    basis set group =>   2
Atom   7H    basis set group =>   2
Atom   8N    basis set group =>   3
Atom   9H    basis set group =>   2
Atom  10H    basis set group =>   2
Atom  11C    basis set group =>   1
Atom  12C    basis set group =>   1
Atom  13C    basis set group =>   1
Atom  14C    basis set group =>   1
Atom  15H    basis set group =>   2
Atom  16H    basis set group =>   2
Atom  17C    basis set group =>   1
Atom  18H    basis set group =>   2
Atom  19H    basis set group =>   2
Atom  20C    basis set group =>   1
Atom  21C    basis set group =>   1
Atom  22N    basis set group =>   3
Atom  23H    basis set group =>   2
Atom  24H    basis set group =>   2
Atom  25H    basis set group =>   2
Atom  26H    basis set group =>   2
Atom  27H    basis set group =>   2
Atom  28H    basis set group =>   2
Atom  29H    basis set group =>   2
Atom  30H    basis set group =>   2
Atom  31H    basis set group =>   2
---------------------------------
AUXILIARY/J BASIS SET INFORMATION
---------------------------------
There are 3 groups of distinct atoms

 Group   1 Type C   : 12s5p4d2f1g contracted to 6s4p3d1f1g pattern {711111/2111/211/2/1}
 Group   2 Type H   : 5s2p1d contracted to 3s1p1d pattern {311/2/1}
 Group   3 Type N   : 12s5p4d2f1g contracted to 6s4p3d1f1g pattern {711111/2111/211/2/1}

Atom   0C    basis set group =>   1
Atom   1C    basis set group =>   1
Atom   2C    basis set group =>   1
Atom   3H    basis set group =>   2
Atom   4H    basis set group =>   2
Atom   5N    basis set group =>   3
Atom   6H    basis set group =>   2
Atom   7H    basis set group =>   2
Atom   8N    basis set group =>   3
Atom   9H    basis set group =>   2
Atom  10H    basis set group =>   2
Atom  11C    basis set group =>   1
Atom  12C    basis set group =>   1
Atom  13C    basis set group =>   1
Atom  14C    basis set group =>   1
Atom  15H    basis set group =>   2
Atom  16H    basis set group =>   2
Atom  17C    basis set group =>   1
Atom  18H    basis set group =>   2
Atom  19H    basis set group =>   2
Atom  20C    basis set group =>   1
Atom  21C    basis set group =>   1
Atom  22N    basis set group =>   3
Atom  23H    basis set group =>   2
Atom  24H    basis set group =>   2
Atom  25H    basis set group =>   2
Atom  26H    basis set group =>   2
Atom  27H    basis set group =>   2
Atom  28H    basis set group =>   2
Atom  29H    basis set group =>   2
Atom  30H    basis set group =>   2
Atom  31H    basis set group =>   2
--------------------------------------------------------------------------
[[4065,1],1]: A high-performance Open MPI point-to-point messaging module
was unable to find any relevant network interfaces:

Module: OpenFabrics (openib)
  Host: compute-0-8

Another transport will be used instead, although this may result in
lower performance.

NOTE: You can disable this warning by setting the MCA parameter
btl_base_warn_component_unused to 0.
--------------------------------------------------------------------------


           ************************************************************
           *        Program running with 4 parallel MPI-processes     *
           *              working on a common directory               *
           ************************************************************
------------------------------------------------------------------------------
                           ORCA GTO INTEGRAL CALCULATION
------------------------------------------------------------------------------

                         BASIS SET STATISTICS AND STARTUP INFO

 # of primitive gaussian shells          ...  374
 # of primitive gaussian functions       ...  750
 # of contracted shells                  ...  219
 # of contracted basis functions         ...  517
 Highest angular momentum                ...    3
 Maximum contraction depth               ...    6
 Integral package used                   ... LIBINT
 Integral threshhold            Thresh   ...  2.500e-11
 Primitive cut-off              TCut     ...  2.500e-12


------------------------------ INTEGRAL EVALUATION ----------------------------


 * One electron integrals 
 Pre-screening matrix                    ... done
 Shell pair data                         ... done (   0.010 sec)

[compute-0-8.local:54129] 3 more processes have sent help message help-mpi-btl-base.txt / btl:no-nics
[compute-0-8.local:54129] Set MCA parameter "orte_base_help_aggregate" to 0 to see all help / error messages
--------------------------------------------------------------------------
[[3861,1],0]: A high-performance Open MPI point-to-point messaging module
was unable to find any relevant network interfaces:

Module: OpenFabrics (openib)
  Host: compute-0-8

Another transport will be used instead, although this may result in
lower performance.

NOTE: You can disable this warning by setting the MCA parameter
btl_base_warn_component_unused to 0.
--------------------------------------------------------------------------


           ************************************************************
           *        Program running with 4 parallel MPI-processes     *
           *              working on a common directory               *
           ************************************************************
-------------------------------------------------------------------------------
                                 ORCA SCF
-------------------------------------------------------------------------------

------------
SCF SETTINGS
------------
Hamiltonian:
 Density Functional     Method          .... DFT(GTOs)
 Exchange Functional    Exchange        .... WB97X-D3
 Correlation Functional Correlation     .... WB97X-D3
 Gradients option       PostSCFGGA      .... off
 Hybrid DFT is turned on
   Fraction HF Exchange ScalHFX         ....  0.195728
   Scaling of DF-GGA-X  ScalDFX         ....  0.000000
   Scaling of DF-GGA-C  ScalDFC         ....  1.000000
   Scaling of DF-LDA-C  ScalLDAC        ....  1.000000
   Perturbative correction              ....  0.000000
   Density functional embedding theory  .... OFF
 Long-range corrected/Screened/Range-Separated Hybrid DFT is turned on
   Amount of maximum screened exact exchange              ....  0.804272
   Range separation parameter mu (erf(mu*r12)/r12)        ....  0.250000


General Settings:
 Integral files         IntName         .... TAM
 Hartree-Fock type      HFTyp           .... RHF
 Total Charge           Charge          ....    0
 Multiplicity           Mult            ....    1
 Number of Electrons    NEL             ....  100
 Basis Dimension        Dim             ....  517
 Nuclear Repulsion      ENuc            ....    907.7587834731 Eh

Convergence Acceleration:
 DIIS                   CNVDIIS         .... on
   Start iteration      DIISMaxIt       ....    12
   Startup error        DIISStart       ....  0.200000
   # of expansion vecs  DIISMaxEq       ....     5
   Bias factor          DIISBfac        ....   1.050
   Max. coefficient     DIISMaxC        ....  10.000
 Newton-Raphson         CNVNR           .... off
 SOSCF                  CNVSOSCF        .... on
   Start iteration      SOSCFMaxIt      ....   150
   Startup grad/error   SOSCFStart      ....  0.003300
 Level Shifting         CNVShift        .... on
   Level shift para.    LevelShift      ....    0.2500
   Turn off err/grad.   ShiftErr        ....    0.0010
 Zerner damping         CNVZerner       .... off
 Static damping         CNVDamp         .... on
   Fraction old density DampFac         ....    0.7000
   Max. Damping (<1)    DampMax         ....    0.9800
   Min. Damping (>=0)   DampMin         ....    0.0000
   Turn off err/grad.   DampErr         ....    0.1000
 Fernandez-Rico         CNVRico         .... off

SCF Procedure:
 Maximum # iterations   MaxIter         ....   125
 SCF integral mode      SCFMode         .... Direct
   Integral package                     .... LIBINT
 Reset frequency        DirectResetFreq ....    20
 Integral Threshold     Thresh          ....  2.500e-11 Eh
 Primitive CutOff       TCut            ....  2.500e-12 Eh

Convergence Tolerance:
 Convergence Check Mode ConvCheckMode   .... Total+1el-Energy
 Convergence forced     ConvForced      .... 0
 Energy Change          TolE            ....  1.000e-08 Eh
 1-El. energy change                    ....  1.000e-05 Eh
 Orbital Gradient       TolG            ....  1.000e-05
 Orbital Rotation angle TolX            ....  1.000e-05
 DIIS Error             TolErr          ....  5.000e-07


Diagonalization of the overlap matrix:
Smallest eigenvalue                        ... 9.258e-05
Time for diagonalization                   ...    0.108 sec
Threshold for overlap eigenvalues          ... 1.000e-08
Number of eigenvalues below threshold      ... 0
Time for construction of square roots      ...    0.049 sec
Total time needed                          ...    0.158 sec

-------------------
DFT GRID GENERATION
-------------------

General Integration Accuracy     IntAcc      ...  4.340
Radial Grid Type                 RadialGrid  ... Gauss-Chebyshev
Angular Grid (max. acc.)         AngularGrid ... Lebedev-110
Angular grid pruning method      GridPruning ... 3 (G Style)
Weight generation scheme         WeightScheme... Becke
Basis function cutoff            BFCut       ...    1.0000e-11
Integration weight cutoff        WCut        ...    1.0000e-14
Grids for H and He will be reduced by one unit

# of grid points (after initial pruning)     ...  36752 (   0.0 sec)
# of grid points (after weights+screening)   ...  32683 (   0.1 sec)
nearest neighbour list constructed           ...    0.0 sec
Grid point re-assignment to atoms done       ...    0.0 sec
Grid point division into batches done        ...    0.0 sec
Reduced shell lists constructed in    0.2 sec

Total number of grid points                  ...    32683
Total number of batches                      ...      526
Average number of points per batch           ...       62
Average number of grid points per atom       ...     1021
Average number of shells per batch           ...   133.27 (60.85%)
Average number of basis functions per batch  ...   316.22 (61.16%)
Average number of large shells per batch     ...    97.26 (72.98%)
Average number of large basis fcns per batch ...   227.58 (71.97%)
Maximum spatial batch extension              ...  14.73, 19.49, 22.44 au
Average spatial batch extension              ...   0.73,  0.76,  0.75 au

Time for grid setup =    0.402 sec

------------------------------
INITIAL GUESS: MODEL POTENTIAL
------------------------------
Loading Hartree-Fock densities                     ... done
Calculating cut-offs                               ... done
Setting up the integral package                    ... done
Initializing the effective Hamiltonian             ... done
Starting the Coulomb interaction                   ... done (   0.5 sec)
Reading the grid                                   ... done
Mapping shells                                     ... done
Starting the XC term evaluation                    ... done (   0.7 sec)
  promolecular density results
     # of electrons  =     99.995450758
     EX              =    -76.395254588
     EC              =     -3.364819214
     EX+EC           =    -79.760073802
Transforming the Hamiltonian                       ... done (   0.0 sec)
Diagonalizing the Hamiltonian                      ... done (   0.1 sec)
Back transforming the eigenvectors                 ... done (   0.0 sec)
Now organizing SCF variables                       ... done
                      ------------------
                      INITIAL GUESS DONE (   1.9 sec)
                      ------------------

--------------------
CPCM SOLVATION MODEL
--------------------
CPCM parameters:
  Epsilon                                         ...       3.0000
  Refrac                                          ...       1.3300
  Rsolv                                           ...       1.3000
  Surface type                                    ...    GEPOL SES
  Epsilon function type                           ...         CPCM
Radii:
 Radius for C  used is    3.7795 Bohr (=   2.0000 Ang.)
 Radius for H  used is    2.4566 Bohr (=   1.3000 Ang.)
 Radius for N  used is    3.4582 Bohr (=   1.8300 Ang.)
Calculating surface                               ...        done! (  0.1s)
GEPOL surface points                              ...          917
GEPOL Volume                                      ...    1535.8141
GEPOL Surface-area                                ...     778.9351
Calculating surface distance matrix               ...        done! (  0.0s)
Performing Cholesky decomposition & store         ...        done! (  0.0s)
Overall time for CPCM initialization              ...                 0.2s
--------------
SCF ITERATIONS
--------------
ITER       Energy         Delta-E        Max-DP      RMS-DP      [F,P]     Damp
               ***  Starting incremental Fock matrix formation  ***
[compute-0-8.local:54149] 3 more processes have sent help message help-mpi-btl-base.txt / btl:no-nics
[compute-0-8.local:54149] Set MCA parameter "orte_base_help_aggregate" to 0 to see all help / error messages
  0   -556.4754600279   0.000000000000 0.06613860  0.00063929  0.1441042 0.7000
  1   -556.5961893972  -0.120729369293 0.07490221  0.00055265  0.0859492 0.7000
                               ***Turning on DIIS***
  2   -556.6585157427  -0.062326345522 0.18557146  0.00120820  0.0444858 0.0000
  3   -556.7601604876  -0.101644744894 0.01299362  0.00029505  0.0330994 0.0000
  4   -556.7757469510  -0.015586463413 0.01617734  0.00011254  0.0046457 0.0000
                      *** Initiating the SOSCF procedure ***
                           *** Shutting down DIIS ***
                      *** Re-Reading the Fockian *** 
                      *** Removing any level shift *** 
ITER      Energy       Delta-E        Grad      Rot      Max-DP    RMS-DP
  5   -556.77614107  -0.0003941157  0.000668  0.000668  0.006495  0.000055
               *** Restarting incremental Fock matrix formation ***
  6   -556.77620919  -0.0000681194  0.000388  0.000774  0.005190  0.000047
  7   -556.77622242  -0.0000132293  0.000154  0.000591  0.002669  0.000032
  8   -556.77622466  -0.0000022475  0.000068  0.000113  0.000870  0.000007
  9   -556.77622525  -0.0000005919  0.000014  0.000022  0.000454  0.000002
 10   -556.77622528  -0.0000000224  0.000010  0.000024  0.000070  0.000001
                 **** Energy Check signals convergence ****
              ***Rediagonalizing the Fockian in SOSCF/NRSCF***

               *****************************************************
               *                     SUCCESS                       *
               *           SCF CONVERGED AFTER  11 CYCLES          *
               *****************************************************

Setting up the final grid:

General Integration Accuracy     IntAcc      ...  4.670
Radial Grid Type                 RadialGrid  ... Gauss-Chebyshev
Angular Grid (max. acc.)         AngularGrid ... Lebedev-302
Angular grid pruning method      GridPruning ... 3 (G Style)
Weight generation scheme         WeightScheme... Becke
Basis function cutoff            BFCut       ...    1.0000e-11
Integration weight cutoff        WCut        ...    1.0000e-14
Grids for H and He will be reduced by one unit

# of grid points (after initial pruning)     ... 145242 (   0.0 sec)
# of grid points (after weights+screening)   ... 126084 (   0.5 sec)
nearest neighbour list constructed           ...    0.0 sec
Grid point re-assignment to atoms done       ...    0.0 sec
Grid point division into batches done        ...    0.5 sec
Reduced shell lists constructed in    1.3 sec

Total number of grid points                  ...   126084
Total number of batches                      ...     1987
Average number of points per batch           ...       63
Average number of grid points per atom       ...     3940
Average number of shells per batch           ...   123.94 (56.59%)
Average number of basis functions per batch  ...   292.08 (56.50%)
Average number of large shells per batch     ...    88.88 (71.71%)
Average number of large basis fcns per batch ...   206.12 (70.57%)
Maximum spatial batch extension              ...  18.44, 17.61, 20.69 au
Average spatial batch extension              ...   0.51,  0.51,  0.51 au

Final grid set up in    1.9 sec
Final integration                            ... done (   2.9 sec)
Change in XC energy                          ...     0.001339331
Integrated number of electrons               ...   100.000542876
Previous integrated no of electrons          ...   100.001139505

----------------
TOTAL SCF ENERGY
----------------

Total Energy       :         -556.77488595 Eh          -15150.61489 eV

Components:
Nuclear Repulsion  :          907.75878347 Eh           24701.37229 eV
Electronic Energy  :        -1464.53366943 Eh          -39851.98718 eV
One Electron Energy:        -2555.63552379 Eh          -69542.37807 eV
Two Electron Energy:         1091.10185436 Eh           29690.39089 eV
CPCM Dielectric    :           -0.00939530 Eh              -0.25566 eV

Virial components:
Potential Energy   :        -1110.07572702 Eh          -30206.69621 eV
Kinetic Energy     :          553.30084107 Eh           15056.08132 eV
Virial Ratio       :            2.00627876


DFT components:
N(Alpha)           :       50.000271438126 electrons
N(Beta)            :       50.000271438126 electrons
N(Total)           :      100.000542876252 electrons
E(XC)              :      -56.022061915158 Eh       
DFET-embed. en.    :        0.000000000000 Eh       
CPCM Solvation Model Properties:
Surface-charge          :           -0.03929747
Charge-correction       :           -0.00060467 Eh              -0.01645 eV
Free-energy (cav+disp)  :            0.00445631 Eh               0.12126 eV
Corrected G(solv)       :         -556.77103431 Eh          -15150.51008 eV

---------------
SCF CONVERGENCE
---------------

  Last Energy change         ...   -7.4430e-09  Tolerance :   1.0000e-08
  Last MAX-Density change    ...    6.4769e-05  Tolerance :   1.0000e-07
  Last RMS-Density change    ...    2.5316e-07  Tolerance :   5.0000e-09
  Last Orbital Gradient      ...    2.8767e-06  Tolerance :   1.0000e-05
  Last Orbital Rotation      ...    9.1238e-06  Tolerance :   1.0000e-05

             **** THE GBW FILE WAS UPDATED (TAM.gbw) ****
             **** DENSITY FILE WAS UPDATED (TAM.scfp) ****
             **** ENERGY FILE WAS UPDATED (TAM.en.tmp) ****
             **** THE GBW FILE WAS UPDATED (TAM.gbw) ****
             **** DENSITY FILE WAS UPDATED (TAM.scfp) ****
----------------
ORBITAL ENERGIES
----------------

  NO   OCC          E(Eh)            E(eV) 
   0   2.0000     -14.414469      -392.2376 
   1   2.0000     -14.411582      -392.1591 
   2   2.0000     -14.410404      -392.1270 
   3   2.0000     -10.356295      -281.8091 
   4   2.0000     -10.296393      -280.1791 
   5   2.0000     -10.296055      -280.1699 
   6   2.0000     -10.294839      -280.1368 
   7   2.0000     -10.294476      -280.1269 
   8   2.0000     -10.294280      -280.1216 
   9   2.0000     -10.293972      -280.1132 
  10   2.0000     -10.273484      -279.5557 
  11   2.0000     -10.266363      -279.3620 
  12   2.0000     -10.266091      -279.3545 
  13   2.0000      -1.082632       -29.4599 
  14   2.0000      -1.008541       -27.4438 
  15   2.0000      -1.005488       -27.3607 
  16   2.0000      -0.891484       -24.2585 
  17   2.0000      -0.889648       -24.2085 
  18   2.0000      -0.872460       -23.7409 
  19   2.0000      -0.787484       -21.4285 
  20   2.0000      -0.761416       -20.7192 
  21   2.0000      -0.748028       -20.3549 
  22   2.0000      -0.747208       -20.3326 
  23   2.0000      -0.681784       -18.5523 
  24   2.0000      -0.664719       -18.0879 
  25   2.0000      -0.640818       -17.4376 
  26   2.0000      -0.593002       -16.1364 
  27   2.0000      -0.591340       -16.0912 
  28   2.0000      -0.580878       -15.8065 
  29   2.0000      -0.571175       -15.5424 
  30   2.0000      -0.549580       -14.9548 
  31   2.0000      -0.535711       -14.5775 
  32   2.0000      -0.530225       -14.4281 
  33   2.0000      -0.525540       -14.3007 
  34   2.0000      -0.506040       -13.7701 
  35   2.0000      -0.495762       -13.4904 
  36   2.0000      -0.491861       -13.3842 
  37   2.0000      -0.489769       -13.3273 
  38   2.0000      -0.477682       -12.9984 
  39   2.0000      -0.458586       -12.4788 
  40   2.0000      -0.449328       -12.2268 
  41   2.0000      -0.443486       -12.0679 
  42   2.0000      -0.428710       -11.6658 
  43   2.0000      -0.426535       -11.6066 
  44   2.0000      -0.401407       -10.9228 
  45   2.0000      -0.396270       -10.7831 
  46   2.0000      -0.394521       -10.7355 
  47   2.0000      -0.317867        -8.6496 
  48   2.0000      -0.312636        -8.5072 
  49   2.0000      -0.297358        -8.0915 
  50   0.0000       0.111997         3.0476 
  51   0.0000       0.128160         3.4874 
  52   0.0000       0.129807         3.5322 
  53   0.0000       0.134998         3.6735 
  54   0.0000       0.154644         4.2081 
  55   0.0000       0.159256         4.3336 
  56   0.0000       0.167770         4.5652 
  57   0.0000       0.169603         4.6151 
  58   0.0000       0.172391         4.6910 
  59   0.0000       0.180910         4.9228 
  60   0.0000       0.188497         5.1293 
  61   0.0000       0.190075         5.1722 
  62   0.0000       0.196821         5.3558 
  63   0.0000       0.205341         5.5876 
  64   0.0000       0.206657         5.6234 
  65   0.0000       0.207939         5.6583 
  66   0.0000       0.214762         5.8440 
  67   0.0000       0.221163         6.0181 
  68   0.0000       0.226126         6.1532 
  69   0.0000       0.228637         6.2215 
  70   0.0000       0.234401         6.3784 
  71   0.0000       0.242782         6.6064 
  72   0.0000       0.246128         6.6975 
  73   0.0000       0.263105         7.1594 
  74   0.0000       0.272310         7.4099 
  75   0.0000       0.279411         7.6032 
  76   0.0000       0.284114         7.7311 
  77   0.0000       0.290413         7.9025 
  78   0.0000       0.298592         8.1251 
  79   0.0000       0.298687         8.1277 
  80   0.0000       0.307993         8.3809 
  81   0.0000       0.318661         8.6712 
  82   0.0000       0.323692         8.8081 
  83   0.0000       0.327682         8.9167 
  84   0.0000       0.332617         9.0510 
  85   0.0000       0.352426         9.5900 
  86   0.0000       0.354521         9.6470 
  87   0.0000       0.374558        10.1922 
  88   0.0000       0.378323        10.2947 
  89   0.0000       0.382770        10.4157 
  90   0.0000       0.396876        10.7995 
  91   0.0000       0.403283        10.9739 
  92   0.0000       0.404442        11.0054 
  93   0.0000       0.410016        11.1571 
  94   0.0000       0.420796        11.4504 
  95   0.0000       0.426034        11.5930 
  96   0.0000       0.429677        11.6921 
  97   0.0000       0.456346        12.4178 
  98   0.0000       0.460240        12.5238 
  99   0.0000       0.462985        12.5985 
 100   0.0000       0.465926        12.6785 
 101   0.0000       0.481164        13.0932 
 102   0.0000       0.482038        13.1169 
 103   0.0000       0.485110        13.2005 
 104   0.0000       0.492990        13.4149 
 105   0.0000       0.497991        13.5510 
 106   0.0000       0.502420        13.6715 
 107   0.0000       0.505122        13.7451 
 108   0.0000       0.508455        13.8358 
 109   0.0000       0.513485        13.9726 
 110   0.0000       0.514732        14.0066 
 111   0.0000       0.523611        14.2482 
 112   0.0000       0.525251        14.2928 
 113   0.0000       0.528909        14.3923 
 114   0.0000       0.531048        14.4506 
 115   0.0000       0.536878        14.6092 
 116   0.0000       0.539149        14.6710 
 117   0.0000       0.550124        14.9696 
 118   0.0000       0.550759        14.9869 
 119   0.0000       0.555824        15.1247 
 120   0.0000       0.557011        15.1570 
 121   0.0000       0.562322        15.3016 
 122   0.0000       0.563565        15.3354 
 123   0.0000       0.573709        15.6114 
 124   0.0000       0.577237        15.7074 
 125   0.0000       0.579915        15.7803 
 126   0.0000       0.589522        16.0417 
 127   0.0000       0.593371        16.1464 
 128   0.0000       0.595305        16.1991 
 129   0.0000       0.611142        16.6300 
 130   0.0000       0.620204        16.8766 
 131   0.0000       0.628837        17.1115 
 132   0.0000       0.647804        17.6276 
 133   0.0000       0.650480        17.7004 
 134   0.0000       0.678911        18.4741 
 135   0.0000       0.684614        18.6293 
 136   0.0000       0.699994        19.0478 
 137   0.0000       0.716099        19.4860 
 138   0.0000       0.733376        19.9562 
 139   0.0000       0.747176        20.3317 
 140   0.0000       0.761734        20.7278 
 141   0.0000       0.777467        21.1560 
 142   0.0000       0.783487        21.3198 
 143   0.0000       0.795997        21.6602 
 144   0.0000       0.811016        22.0689 
 145   0.0000       0.820198        22.3187 
 146   0.0000       0.821685        22.3592 
 147   0.0000       0.833288        22.6749 
 148   0.0000       0.840698        22.8766 
 149   0.0000       0.841266        22.8920 
 150   0.0000       0.852272        23.1915 
 151   0.0000       0.867770        23.6132 
 152   0.0000       0.873261        23.7626 
 153   0.0000       0.884431        24.0666 
 154   0.0000       0.902932        24.5700 
 155   0.0000       0.913007        24.8442 
 156   0.0000       0.921638        25.0791 
 157   0.0000       0.940988        25.6056 
 158   0.0000       0.960577        26.1386 
 159   0.0000       0.963340        26.2138 
 160   0.0000       0.966431        26.2979 
 161   0.0000       0.975258        26.5381 
 162   0.0000       0.984952        26.8019 
 163   0.0000       0.986924        26.8556 
 164   0.0000       1.000302        27.2196 
 165   0.0000       1.008822        27.4514 
 166   0.0000       1.027290        27.9540 
 167   0.0000       1.029651        28.0182 
 168   0.0000       1.034327        28.1455 
 169   0.0000       1.064367        28.9629 
 170   0.0000       1.079333        29.3701 
 171   0.0000       1.092185        29.7199 
 172   0.0000       1.096603        29.8401 
 173   0.0000       1.113891        30.3105 
 174   0.0000       1.121573        30.5195 
 175   0.0000       1.154400        31.4128 
 176   0.0000       1.160459        31.5777 
 177   0.0000       1.162977        31.6462 
 178   0.0000       1.168954        31.8089 
 179   0.0000       1.174948        31.9720 
 180   0.0000       1.192526        32.4503 
 181   0.0000       1.215809        33.0838 
 182   0.0000       1.221971        33.2515 
 183   0.0000       1.230036        33.4710 
 184   0.0000       1.241214        33.7752 
 185   0.0000       1.251024        34.0421 
 186   0.0000       1.267860        34.5002 
 187   0.0000       1.276434        34.7335 
 188   0.0000       1.292206        35.1627 
 189   0.0000       1.307839        35.5881 
 190   0.0000       1.308630        35.6096 
 191   0.0000       1.321629        35.9634 
 192   0.0000       1.327629        36.1266 
 193   0.0000       1.348818        36.7032 
 194   0.0000       1.356148        36.9027 
 195   0.0000       1.361379        37.0450 
 196   0.0000       1.373244        37.3679 
 197   0.0000       1.385417        37.6991 
 198   0.0000       1.393511        37.9194 
 199   0.0000       1.409635        38.3581 
 200   0.0000       1.423749        38.7422 
 201   0.0000       1.431281        38.9471 
 202   0.0000       1.441695        39.2305 
 203   0.0000       1.455880        39.6165 
 204   0.0000       1.466650        39.9096 
 205   0.0000       1.534104        41.7451 
 206   0.0000       1.580297        43.0021 
 207   0.0000       1.588605        43.2281 
 208   0.0000       1.603959        43.6459 
 209   0.0000       1.605411        43.6854 
 210   0.0000       1.627378        44.2832 
 211   0.0000       1.633342        44.4455 
 212   0.0000       1.637408        44.5561 
 213   0.0000       1.652732        44.9731 
 214   0.0000       1.657720        45.1089 
 215   0.0000       1.671925        45.4954 
 216   0.0000       1.675230        45.5853 
 217   0.0000       1.681475        45.7552 
 218   0.0000       1.689376        45.9703 
 219   0.0000       1.695623        46.1403 
 220   0.0000       1.698123        46.2083 
 221   0.0000       1.699974        46.2586 
 222   0.0000       1.712552        46.6009 
 223   0.0000       1.720132        46.8072 
 224   0.0000       1.724615        46.9292 
 225   0.0000       1.737052        47.2676 
 226   0.0000       1.741878        47.3989 
 227   0.0000       1.749643        47.6102 
 228   0.0000       1.755155        47.7602 
 229   0.0000       1.767752        48.1030 
 230   0.0000       1.770368        48.1742 
 231   0.0000       1.774548        48.2879 
 232   0.0000       1.786699        48.6185 
 233   0.0000       1.792484        48.7760 
 234   0.0000       1.817082        49.4453 
 235   0.0000       1.822137        49.5829 
 236   0.0000       1.837890        50.0115 
 237   0.0000       1.840653        50.0867 
 238   0.0000       1.860986        50.6400 
 239   0.0000       1.861824        50.6628 
 240   0.0000       1.871467        50.9252 
 241   0.0000       1.878216        51.1089 
 242   0.0000       1.884200        51.2717 
 243   0.0000       1.895544        51.5804 
 244   0.0000       1.909097        51.9492 
 245   0.0000       1.930668        52.5361 
 246   0.0000       1.946574        52.9690 
 247   0.0000       1.961844        53.3845 
 248   0.0000       1.965494        53.4838 
 249   0.0000       1.982775        53.9541 
 250   0.0000       2.011901        54.7466 
 251   0.0000       2.017276        54.8929 
 252   0.0000       2.021090        54.9967 
 253   0.0000       2.052566        55.8532 
 254   0.0000       2.056671        55.9649 
 255   0.0000       2.067768        56.2668 
 256   0.0000       2.090303        56.8800 
 257   0.0000       2.102087        57.2007 
 258   0.0000       2.104173        57.2575 
 259   0.0000       2.130046        57.9615 
 260   0.0000       2.157912        58.7198 
 261   0.0000       2.171805        59.0978 
 262   0.0000       2.185416        59.4682 
 263   0.0000       2.195465        59.7417 
 264   0.0000       2.210364        60.1470 
 265   0.0000       2.217448        60.3398 
 266   0.0000       2.260985        61.5245 
 267   0.0000       2.263551        61.5944 
 268   0.0000       2.292486        62.3817 
 269   0.0000       2.308320        62.8126 
 270   0.0000       2.324740        63.2594 
 271   0.0000       2.337129        63.5965 
 272   0.0000       2.340808        63.6966 
 273   0.0000       2.363060        64.3021 
 274   0.0000       2.369565        64.4792 
 275   0.0000       2.381258        64.7973 
 276   0.0000       2.402599        65.3780 
 277   0.0000       2.406892        65.4949 
 278   0.0000       2.438718        66.3609 
 279   0.0000       2.441361        66.4328 
 280   0.0000       2.445557        66.5470 
 281   0.0000       2.451875        66.7189 
 282   0.0000       2.453883        66.7735 
 283   0.0000       2.461301        66.9754 
 284   0.0000       2.478623        67.4468 
 285   0.0000       2.480457        67.4967 
 286   0.0000       2.508866        68.2697 
 287   0.0000       2.516053        68.4653 
 288   0.0000       2.519997        68.5726 
 289   0.0000       2.543070        69.2004 
 290   0.0000       2.549269        69.3691 
 291   0.0000       2.550600        69.4053 
 292   0.0000       2.563138        69.7465 
 293   0.0000       2.574168        70.0467 
 294   0.0000       2.577069        70.1256 
 295   0.0000       2.592582        70.5477 
 296   0.0000       2.599725        70.7421 
 297   0.0000       2.601459        70.7893 
 298   0.0000       2.604227        70.8646 
 299   0.0000       2.609680        71.0130 
 300   0.0000       2.641361        71.8751 
 301   0.0000       2.644679        71.9654 
 302   0.0000       2.649751        72.1034 
 303   0.0000       2.669742        72.6474 
 304   0.0000       2.673206        72.7416 
 305   0.0000       2.678222        72.8781 
 306   0.0000       2.686291        73.0977 
 307   0.0000       2.691194        73.2311 
 308   0.0000       2.704290        73.5875 
 309   0.0000       2.706984        73.6608 
 310   0.0000       2.721764        74.0630 
 311   0.0000       2.722669        74.0876 
 312   0.0000       2.727447        74.2176 
 313   0.0000       2.734471        74.4087 
 314   0.0000       2.743976        74.6674 
 315   0.0000       2.745568        74.7107 
 316   0.0000       2.751020        74.8591 
 317   0.0000       2.760511        75.1173 
 318   0.0000       2.769469        75.3611 
 319   0.0000       2.780793        75.6692 
 320   0.0000       2.803475        76.2864 
 321   0.0000       2.806076        76.3572 
 322   0.0000       2.824873        76.8687 
 323   0.0000       2.828623        76.9707 
 324   0.0000       2.832218        77.0686 
 325   0.0000       2.836247        77.1782 
 326   0.0000       2.860672        77.8428 
 327   0.0000       2.882905        78.4478 
 328   0.0000       2.889786        78.6351 
 329   0.0000       2.893329        78.7315 
 330   0.0000       2.911460        79.2248 
 331   0.0000       2.924770        79.5870 
 332   0.0000       2.932609        79.8003 
 333   0.0000       2.952623        80.3450 
 334   0.0000       2.953771        80.3762 
 335   0.0000       2.979295        81.0707 
 336   0.0000       3.001657        81.6792 
 337   0.0000       3.034227        82.5655 
 338   0.0000       3.044742        82.8516 
 339   0.0000       3.050764        83.0155 
 340   0.0000       3.064232        83.3820 
 341   0.0000       3.078568        83.7721 
 342   0.0000       3.094360        84.2018 
 343   0.0000       3.120716        84.9190 
 344   0.0000       3.131749        85.2192 
 345   0.0000       3.135857        85.3310 
 346   0.0000       3.151942        85.7687 
 347   0.0000       3.167286        86.1862 
 348   0.0000       3.185129        86.6718 
 349   0.0000       3.201598        87.1199 
 350   0.0000       3.206440        87.2517 
 351   0.0000       3.218324        87.5750 
 352   0.0000       3.235709        88.0481 
 353   0.0000       3.237221        88.0893 
 354   0.0000       3.256366        88.6102 
 355   0.0000       3.269494        88.9675 
 356   0.0000       3.275454        89.1296 
 357   0.0000       3.290136        89.5292 
 358   0.0000       3.301244        89.8314 
 359   0.0000       3.309747        90.0628 
 360   0.0000       3.326101        90.5078 
 361   0.0000       3.330118        90.6171 
 362   0.0000       3.336562        90.7925 
 363   0.0000       3.342939        90.9660 
 364   0.0000       3.348198        91.1091 
 365   0.0000       3.370101        91.7051 
 366   0.0000       3.380210        91.9802 
 367   0.0000       3.385692        92.1294 
 368   0.0000       3.388457        92.2046 
 369   0.0000       3.395430        92.3944 
 370   0.0000       3.400264        92.5259 
 371   0.0000       3.409855        92.7869 
 372   0.0000       3.418216        93.0144 
 373   0.0000       3.428043        93.2818 
 374   0.0000       3.437496        93.5390 
 375   0.0000       3.446388        93.7810 
 376   0.0000       3.468654        94.3869 
 377   0.0000       3.478302        94.6494 
 378   0.0000       3.480606        94.7121 
 379   0.0000       3.505528        95.3903 
 380   0.0000       3.513823        95.6160 
 381   0.0000       3.519175        95.7616 
 382   0.0000       3.527031        95.9754 
 383   0.0000       3.537988        96.2736 
 384   0.0000       3.543180        96.4148 
 385   0.0000       3.553055        96.6835 
 386   0.0000       3.575210        97.2864 
 387   0.0000       3.583801        97.5202 
 388   0.0000       3.584605        97.5420 
 389   0.0000       3.594926        97.8229 
 390   0.0000       3.623742        98.6070 
 391   0.0000       3.626166        98.6730 
 392   0.0000       3.630187        98.7824 
 393   0.0000       3.650727        99.3413 
 394   0.0000       3.655633        99.4748 
 395   0.0000       3.664970        99.7289 
 396   0.0000       3.681471       100.1779 
 397   0.0000       3.697601       100.6168 
 398   0.0000       3.701970       100.7357 
 399   0.0000       3.708737       100.9199 
 400   0.0000       3.729829       101.4938 
 401   0.0000       3.760540       102.3295 
 402   0.0000       3.760704       102.3340 
 403   0.0000       3.772935       102.6668 
 404   0.0000       3.781423       102.8977 
 405   0.0000       3.797896       103.3460 
 406   0.0000       3.807676       103.6121 
 407   0.0000       3.810622       103.6923 
 408   0.0000       3.827580       104.1538 
 409   0.0000       3.831880       104.2708 
 410   0.0000       3.857678       104.9727 
 411   0.0000       3.878378       105.5360 
 412   0.0000       3.902448       106.1910 
 413   0.0000       3.923860       106.7737 
 414   0.0000       3.940224       107.2190 
 415   0.0000       3.963006       107.8389 
 416   0.0000       3.975940       108.1908 
 417   0.0000       3.987606       108.5083 
 418   0.0000       4.002166       108.9045 
 419   0.0000       4.013033       109.2002 
 420   0.0000       4.016965       109.3072 
 421   0.0000       4.020043       109.3909 
 422   0.0000       4.030130       109.6654 
 423   0.0000       4.042102       109.9912 
 424   0.0000       4.051330       110.2423 
 425   0.0000       4.076757       110.9342 
 426   0.0000       4.095863       111.4541 
 427   0.0000       4.108399       111.7952 
 428   0.0000       4.118525       112.0708 
 429   0.0000       4.148181       112.8778 
 430   0.0000       4.152832       113.0043 
 431   0.0000       4.166198       113.3680 
 432   0.0000       4.171019       113.4992 
 433   0.0000       4.213371       114.6517 
 434   0.0000       4.241253       115.4103 
 435   0.0000       4.262312       115.9834 
 436   0.0000       4.280240       116.4712 
 437   0.0000       4.291858       116.7874 
 438   0.0000       4.312287       117.3433 
 439   0.0000       4.347819       118.3102 
 440   0.0000       4.372389       118.9787 
 441   0.0000       4.378177       119.1363 
 442   0.0000       4.400303       119.7383 
 443   0.0000       4.426732       120.4575 
 444   0.0000       4.467175       121.5580 
 445   0.0000       4.475434       121.7828 
 446   0.0000       4.476712       121.8175 
 447   0.0000       4.483853       122.0119 
 448   0.0000       4.497290       122.3775 
 449   0.0000       4.508689       122.6877 
 450   0.0000       4.530249       123.2743 
 451   0.0000       4.541709       123.5862 
 452   0.0000       4.572236       124.4169 
 453   0.0000       4.588664       124.8639 
 454   0.0000       4.598381       125.1283 
 455   0.0000       4.637416       126.1905 
 456   0.0000       4.661774       126.8533 
 457   0.0000       4.664144       126.9178 
 458   0.0000       4.699901       127.8908 
 459   0.0000       4.703144       127.9790 
 460   0.0000       4.741380       129.0195 
 461   0.0000       4.745699       129.1370 
 462   0.0000       4.904299       133.4527 
 463   0.0000       4.931834       134.2020 
 464   0.0000       4.946216       134.5934 
 465   0.0000       4.957446       134.8990 
 466   0.0000       4.968007       135.1863 
 467   0.0000       4.970813       135.2627 
 468   0.0000       4.993852       135.8896 
 469   0.0000       5.002088       136.1137 
 470   0.0000       5.027479       136.8047 
 471   0.0000       5.085375       138.3801 
 472   0.0000       5.115001       139.1863 
 473   0.0000       5.146629       140.0469 
 474   0.0000       5.152210       140.1988 
 475   0.0000       5.185510       141.1049 
 476   0.0000       5.196261       141.3974 
 477   0.0000       5.255212       143.0016 
 478   0.0000       5.259085       143.1070 
 479   0.0000       5.364856       145.9852 
 480   0.0000       5.382470       146.4645 
 481   0.0000       5.392557       146.7389 
 482   0.0000       5.414977       147.3490 
 483   0.0000       5.431404       147.7960 
 484   0.0000       5.434903       147.8912 
 485   0.0000       5.497081       149.5832 
 486   0.0000       5.497624       149.5979 
 487   0.0000       5.545454       150.8995 
 488   0.0000       5.593772       152.2143 
 489   0.0000       5.618062       152.8752 
 490   0.0000       5.631231       153.2336 
 491   0.0000       5.660906       154.0411 
 492   0.0000       5.671947       154.3415 
 493   0.0000       5.706707       155.2874 
 494   0.0000       5.802670       157.8987 
 495   0.0000       5.814891       158.2312 
 496   0.0000       5.838705       158.8792 
 497   0.0000       5.866694       159.6409 
 498   0.0000       5.955182       162.0487 
 499   0.0000       5.987617       162.9313 
 500   0.0000       6.076876       165.3602 
 501   0.0000       6.118662       166.4973 
 502   0.0000       6.167479       167.8256 
 503   0.0000       6.179878       168.1630 
 504   0.0000      22.531109       613.1026 
 505   0.0000      22.543383       613.4366 
 506   0.0000      22.566596       614.0683 
 507   0.0000      22.573598       614.2588 
 508   0.0000      22.580157       614.4373 
 509   0.0000      22.590547       614.7200 
 510   0.0000      22.644611       616.1912 
 511   0.0000      22.661980       616.6638 
 512   0.0000      22.699750       617.6916 
 513   0.0000      22.777679       619.8121 
 514   0.0000      32.871650       894.4831 
 515   0.0000      32.875051       894.5756 
 516   0.0000      32.962639       896.9590 

                    ********************************
                    * MULLIKEN POPULATION ANALYSIS *
                    ********************************

-----------------------
MULLIKEN ATOMIC CHARGES
-----------------------
   0 C :   -0.175261
   1 C :   -0.179032
   2 C :   -0.159256
   3 H :    0.098111
   4 H :    0.114899
   5 N :   -0.104048
   6 H :    0.099480
   7 H :    0.133301
   8 N :   -0.114836
   9 H :    0.135246
  10 H :    0.092791
  11 C :   -0.296385
  12 C :   -0.172012
  13 C :   -0.160361
  14 C :   -0.195959
  15 H :    0.098130
  16 H :    0.131966
  17 C :   -0.154894
  18 H :    0.119470
  19 H :    0.102651
  20 C :   -0.159877
  21 C :   -0.175736
  22 N :   -0.111738
  23 H :    0.095038
  24 H :    0.132818
  25 H :    0.105085
  26 H :    0.114442
  27 H :    0.110787
  28 H :    0.108624
  29 H :    0.122310
  30 H :    0.111900
  31 H :    0.132346
Sum of atomic charges:   -0.0000000

--------------------------------
MULLIKEN REDUCED ORBITAL CHARGES
--------------------------------
  0 C s       :     3.192289  s :     3.192289
      pz      :     1.013653  p :     2.886192
      px      :     0.981196
      py      :     0.891343
      dz2     :     0.020124  d :     0.091265
      dxz     :     0.011564
      dyz     :     0.014892
      dx2y2   :     0.029383
      dxy     :     0.015303
      f0      :     0.001013  f :     0.005515
      f+1     :     0.000425
      f-1     :     0.000586
      f+2     :     0.000294
      f-2     :     0.000722
      f+3     :     0.001000
      f-3     :     0.001474
  1 C s       :     3.225676  s :     3.225676
      pz      :     0.971343  p :     2.830335
      px      :     0.840403
      py      :     1.018589
      dz2     :     0.035585  d :     0.115318
      dxz     :     0.019149
      dyz     :     0.012064
      dx2y2   :     0.022455
      dxy     :     0.026065
      f0      :     0.001104  f :     0.007703
      f+1     :     0.001713
      f-1     :     0.000317
      f+2     :     0.000961
      f-2     :     0.000813
      f+3     :     0.001320
      f-3     :     0.001475
  2 C s       :     3.218648  s :     3.218648
      pz      :     0.965053  p :     2.814589
      px      :     0.815390
      py      :     1.034146
      dz2     :     0.037509  d :     0.118212
      dxz     :     0.021832
      dyz     :     0.007975
      dx2y2   :     0.027193
      dxy     :     0.023703
      f0      :     0.001055  f :     0.007808
      f+1     :     0.001894
      f-1     :     0.000360
      f+2     :     0.000875
      f-2     :     0.000856
      f+3     :     0.001409
      f-3     :     0.001358
  3 H s       :     0.881086  s :     0.881086
      pz      :     0.013086  p :     0.020803
      px      :     0.003986
      py      :     0.003730
  4 H s       :     0.864565  s :     0.864565
      pz      :     0.005399  p :     0.020535
      px      :     0.011217
      py      :     0.003919
  5 N s       :     3.405676  s :     3.405676
      pz      :     1.551495  p :     3.616630
      px      :     1.037666
      py      :     1.027469
      dz2     :     0.007957  d :     0.077812
      dxz     :     0.016339
      dyz     :     0.013617
      dx2y2   :     0.018021
      dxy     :     0.021879
[...]
   6 H :    0.121607
   7 H :    0.136584
   8 N :    0.112161
   9 H :    0.134907
  10 H :    0.120720
  11 C :   -0.339144
  12 C :   -0.277189
  13 C :   -0.290245
  14 C :   -0.264560
  15 H :    0.122387
  16 H :    0.136758
  17 C :   -0.289403
  18 H :    0.142147
  19 H :    0.140517
  20 C :   -0.275022
  21 C :   -0.265869
  22 N :    0.108899
  23 H :    0.122239
  24 H :    0.137254
  25 H :    0.134075
  26 H :    0.124309
  27 H :    0.114459
  28 H :    0.131206
  29 H :    0.135860
  30 H :    0.137806
  31 H :    0.140833

-------------------------------
LOEWDIN REDUCED ORBITAL CHARGES
-------------------------------
  0 C s       :     2.775314  s :     2.775314
      pz      :     1.029801  p :     3.057058
      px      :     1.007780
      py      :     1.019477
      dz2     :     0.068719  d :     0.390952
      dxz     :     0.079283
      dyz     :     0.057028
      dx2y2   :     0.103870
      dxy     :     0.082051
      f0      :     0.005148  f :     0.038974
      f+1     :     0.002740
      f-1     :     0.004180
      f+2     :     0.004660
      f-2     :     0.006088
      f+3     :     0.006628
      f-3     :     0.009530
  1 C s       :     2.778789  s :     2.778789
      pz      :     1.001007  p :     2.965869
      px      :     0.929578
      py      :     1.035284
      dz2     :     0.135030  d :     0.487190
      dxz     :     0.088519
      dyz     :     0.052992
      dx2y2   :     0.087799
      dxy     :     0.122850
      f0      :     0.005534  f :     0.054552
      f+1     :     0.011314
      f-1     :     0.002367
      f+2     :     0.008852
      f-2     :     0.008617
      f+3     :     0.007962
      f-3     :     0.009907
  2 C s       :     2.777543  s :     2.777543
      pz      :     0.999164  p :     2.963305
      px      :     0.931501
      py      :     1.032639
      dz2     :     0.152952  d :     0.492814
      dxz     :     0.095671
      dyz     :     0.036898
      dx2y2   :     0.101062
      dxy     :     0.106232
      f0      :     0.005151  f :     0.056202
      f+1     :     0.012628
      f-1     :     0.002672
      f+2     :     0.008482
      f-2     :     0.009939
      f+3     :     0.008937
      f-3     :     0.008393
  3 H s       :     0.802184  s :     0.802184
      pz      :     0.032273  p :     0.058822
      px      :     0.013832
      py      :     0.012717
  4 H s       :     0.802552  s :     0.802552
      pz      :     0.020568  p :     0.058595
      px      :     0.025388
      py      :     0.012639
  5 N s       :     2.930803  s :     2.930803
      pz      :     1.450109  p :     3.661077
      px      :     1.105242
      py      :     1.105726
      dz2     :     0.037245  d :     0.279942
      dxz     :     0.048592
      dyz     :     0.040116
      dx2y2   :     0.071441
      dxy     :     0.082548
      f0      :     0.001500  f :     0.020759
      f+1     :     0.002713
      f-1     :     0.001872
      f+2     :     0.002838
      f-2     :     0.003930
      f+3     :     0.002809
      f-3     :     0.005097
  6 H s       :     0.820469  s :     0.820469
      pz      :     0.034227  p :     0.057924
      px      :     0.010819
      py      :     0.012878
  7 H s       :     0.805433  s :     0.805433
      pz      :     0.014776  p :     0.057982
      px      :     0.018212
      py      :     0.024994
  8 N s       :     2.916082  s :     2.916082
      pz      :     1.438124  p :     3.674489
      px      :     1.129768
      py      :     1.106597
      dz2     :     0.035355  d :     0.276982
      dxz     :     0.047057
      dyz     :     0.038437
      dx2y2   :     0.069985
      dxy     :     0.086148
      f0      :     0.001858  f :     0.020286
      f+1     :     0.002441
      f-1     :     0.002053
      f+2     :     0.002531
      f-2     :     0.003558
      f+3     :     0.002864
      f-3     :     0.004981
  9 H s       :     0.807042  s :     0.807042
      pz      :     0.013588  p :     0.058051
      px      :     0.015159
      py      :     0.029304
 10 H s       :     0.821424  s :     0.821424
      pz      :     0.034372  p :     0.057856
      px      :     0.011113
      py      :     0.012371
 11 C s       :     2.737536  s :     2.737536
      pz      :     0.975788  p :     2.721842
      px      :     0.874286
      py      :     0.871768
      dz2     :     0.195167  d :     0.776685
      dxz     :     0.141909
      dyz     :     0.122878
      dx2y2   :     0.150825
      dxy     :     0.165907
      f0      :     0.009898  f :     0.103081
      f+1     :     0.012684
      f-1     :     0.008906
      f+2     :     0.014153
      f-2     :     0.020038
      f+3     :     0.016542
      f-3     :     0.020860
 12 C s       :     2.772815  s :     2.772815
      pz      :     1.045890  p :     2.968691
      px      :     0.985956
      py      :     0.936844
      dz2     :     0.105682  d :     0.480161
      dxz     :     0.095124
      dyz     :     0.071204
      dx2y2   :     0.079821
      dxy     :     0.128330
      f0      :     0.007372  f :     0.055522
      f+1     :     0.007262
      f-1     :     0.004122
      f+2     :     0.005486
      f-2     :     0.011732
      f+3     :     0.009932
      f-3     :     0.009616
 13 C s       :     2.776170  s :     2.776170
      pz      :     1.035123  p :     2.964984
      px      :     1.009493
      py      :     0.920368
      dz2     :     0.105363  d :     0.493031
      dxz     :     0.074772
      dyz     :     0.094191
      dx2y2   :     0.082735
      dxy     :     0.135970
      f0      :     0.007768  f :     0.056061
      f+1     :     0.006544
      f-1     :     0.004159
      f+2     :     0.007048
      f-2     :     0.010008
      f+3     :     0.008741
      f-3     :     0.011794
 14 C s       :     2.772048  s :     2.772048
      pz      :     1.027746  p :     3.059374
      px      :     1.018733
      py      :     1.012895
      dz2     :     0.111881  d :     0.393035
      dxz     :     0.073019
      dyz     :     0.033320
      dx2y2   :     0.075263
      dxy     :     0.099553
      f0      :     0.003621  f :     0.040103
      f+1     :     0.007452
      f-1     :     0.003956
      f+2     :     0.005827
      f-2     :     0.006831
      f+3     :     0.006493
      f-3     :     0.005922
 15 H s       :     0.819943  s :     0.819943
      pz      :     0.032950  p :     0.057670
      px      :     0.012957
      py      :     0.011763
 16 H s       :     0.805316  s :     0.805316
      pz      :     0.015774  p :     0.057926
      px      :     0.020908
      py      :     0.021245
 17 C s       :     2.776064  s :     2.776064
      pz      :     1.037102  p :     2.963611
      px      :     0.999245
      py      :     0.927264
      dz2     :     0.078903  d :     0.494340
      dxz     :     0.086579
      dyz     :     0.105394
      dx2y2   :     0.124056
      dxy     :     0.099409
      f0      :     0.007373  f :     0.055387
      f+1     :     0.003390
      f-1     :     0.006884
      f+2     :     0.007271
      f-2     :     0.008517
      f+3     :     0.009824
      f-3     :     0.012127
 18 H s       :     0.799324  s :     0.799324
      pz      :     0.013186  p :     0.058529
      px      :     0.017100
      py      :     0.028243
 19 H s       :     0.800579  s :     0.800579
      pz      :     0.032150  p :     0.058905
      px      :     0.013463
      py      :     0.013292
 20 C s       :     2.780311  s :     2.780311
      pz      :     1.021678  p :     2.967311
      px      :     0.975404
      py      :     0.970229
      dz2     :     0.065194  d :     0.473390
      dxz     :     0.127975
      dyz     :     0.087607
      dx2y2   :     0.093820
      dxy     :     0.098794
      f0      :     0.003929  f :     0.054009
      f+1     :     0.006380
      f-1     :     0.010954
      f+2     :     0.004928
      f-2     :     0.008440
      f+3     :     0.007968
      f-3     :     0.011411
 21 C s       :     2.772980  s :     2.772980
      pz      :     1.029713  p :     3.065680
      px      :     1.019912
      py      :     1.016054
      dz2     :     0.108064  d :     0.387804
      dxz     :     0.069962
      dyz     :     0.037792
      dx2y2   :     0.062340
      dxy     :     0.109645
      f0      :     0.004119  f :     0.039405
      f+1     :     0.006954
      f-1     :     0.003509
      f+2     :     0.006086
      f-2     :     0.006310
      f+3     :     0.006396
      f-3     :     0.006032
 22 N s       :     2.926920  s :     2.926920
      pz      :     1.447084  p :     3.668120
      px      :     1.100892
      py      :     1.120143
      dz2     :     0.034185  d :     0.275519
      dxz     :     0.052048
      dyz     :     0.039218
      dx2y2   :     0.073710
      dxy     :     0.076357
      f0      :     0.001459  f :     0.020543
      f+1     :     0.002788
      f-1     :     0.001622
      f+2     :     0.003361
      f-2     :     0.003349
      f+3     :     0.002961
      f-3     :     0.005003
 23 H s       :     0.820093  s :     0.820093
      pz      :     0.032307  p :     0.057668
      px      :     0.013591
      py      :     0.011769
 24 H s       :     0.804979  s :     0.804979
      pz      :     0.019867  p :     0.057767
      px      :     0.027337
      py      :     0.010563
 25 H s       :     0.807843  s :     0.807843
      pz      :     0.022338  p :     0.058082
      px      :     0.022692
      py      :     0.013052
 26 H s       :     0.817366  s :     0.817366
      pz      :     0.027720  p :     0.058325
      px      :     0.016423
      py      :     0.014182
 27 H s       :     0.829543  s :     0.829543
      pz      :     0.037388  p :     0.055998
      px      :     0.009203
      py      :     0.009407
 28 H s       :     0.811285  s :     0.811285
      pz      :     0.032671  p :     0.057509
      px      :     0.013813
      py      :     0.011025
 29 H s       :     0.805701  s :     0.805701
      pz      :     0.015011  p :     0.058440
      px      :     0.017454
      py      :     0.025975
 30 H s       :     0.803325  s :     0.803325
      pz      :     0.031163  p :     0.058869
      px      :     0.014821
      py      :     0.012886
 31 H s       :     0.799886  s :     0.799886
      pz      :     0.013270  p :     0.059280
      px      :     0.020311
      py      :     0.025699


                      *****************************
                      * MAYER POPULATION ANALYSIS *
                      *****************************

  NA   - Mulliken gross atomic population
  ZA   - Total nuclear charge
  QA   - Mulliken gross atomic charge
  VA   - Mayer's total valence
  BVA  - Mayer's bonded valence
  FA   - Mayer's free valence

  ATOM       NA         ZA         QA         VA         BVA        FA
  0 C      6.1635     6.0000    -0.1635     4.0009     4.0009    -0.0000
  1 C      6.1584     6.0000    -0.1584     3.9030     3.9030    -0.0000
  2 C      6.1395     6.0000    -0.1395     3.9031     3.9031    -0.0000
  3 H      0.9041     1.0000     0.0959     0.9932     0.9932    -0.0000
  4 H      0.8918     1.0000     0.1082     0.9774     0.9774    -0.0000
  5 N      7.0892     7.0000    -0.0892     2.8206     2.8206    -0.0000
  6 H      0.9103     1.0000     0.0897     0.9839     0.9839    -0.0000
  7 H      0.8707     1.0000     0.1293     0.9625     0.9625    -0.0000
  8 N      7.1012     7.0000    -0.1012     2.8256     2.8256    -0.0000
  9 H      0.8745     1.0000     0.1255     0.9640     0.9640    -0.0000
 10 H      0.9172     1.0000     0.0828     0.9785     0.9785    -0.0000
 11 C      6.2593     6.0000    -0.2593     4.5423     4.5423    -0.0000
 12 C      6.1502     6.0000    -0.1502     3.9873     3.9873    -0.0000
 13 C      6.1623     6.0000    -0.1623     3.9353     3.9353    -0.0000
 14 C      6.1803     6.0000    -0.1803     3.9622     3.9622    -0.0000
 15 H      0.9105     1.0000     0.0895     0.9817     0.9817    -0.0000
 16 H      0.8711     1.0000     0.1289     0.9660     0.9660    -0.0000
 17 C      6.1668     6.0000    -0.1668     3.9535     3.9535    -0.0000
 18 H      0.8796     1.0000     0.1204     0.9737     0.9737    -0.0000
 19 H      0.8964     1.0000     0.1036     0.9916     0.9916    -0.0000
 20 C      6.1663     6.0000    -0.1663     3.9130     3.9130    -0.0000
 21 C      6.2071     6.0000    -0.2071     3.9052     3.9052    -0.0000
 22 N      7.1095     7.0000    -0.1095     2.8547     2.8547    -0.0000
 23 H      0.9138     1.0000     0.0862     0.9826     0.9826    -0.0000
 24 H      0.8740     1.0000     0.1260     0.9605     0.9605    -0.0000
 25 H      0.8735     1.0000     0.1265     0.9653     0.9653    -0.0000
 26 H      0.9049     1.0000     0.0951     0.9725     0.9725    -0.0000
 27 H      0.9255     1.0000     0.0745     0.9767     0.9767    -0.0000
 28 H      0.8956     1.0000     0.1044     0.9679     0.9679    -0.0000
 29 H      0.8775     1.0000     0.1225     0.9656     0.9656    -0.0000
 30 H      0.8798     1.0000     0.1202     0.9711     0.9711    -0.0000
 31 H      0.8757     1.0000     0.1243     0.9724     0.9724    -0.0000

  Mayer bond orders larger than 0.100000
B(  0-C ,  1-C ) :   1.0212 B(  0-C ,  2-C ) :   1.0175 B(  0-C ,  3-H ) :   0.9613 
B(  0-C ,  4-H ) :   0.9715 B(  1-C ,  5-N ) :   0.9340 B(  1-C ,  6-H ) :   0.9581 
B(  1-C ,  7-H ) :   0.9645 B(  2-C ,  8-N ) :   0.9480 B(  2-C ,  9-H ) :   0.9670 
B(  2-C , 10-H ) :   0.9476 B(  5-N , 11-C ) :   1.0651 B(  5-N , 13-C ) :   0.9587 
B(  8-N , 11-C ) :   1.0628 B(  8-N , 12-C ) :   0.9691 B( 11-C , 22-N ) :   1.0705 
B( 11-C , 27-H ) :   1.0294 B( 12-C , 21-C ) :   0.9840 B( 12-C , 28-H ) :   0.9701 
B( 12-C , 29-H ) :   0.9725 B( 13-C , 14-C ) :   1.0001 B( 13-C , 15-H ) :   0.9636 
B( 13-C , 16-H ) :   0.9625 B( 14-C , 17-C ) :   1.0141 B( 14-C , 18-H ) :   0.9758 
B( 14-C , 19-H ) :   0.9583 B( 17-C , 22-N ) :   0.9592 B( 17-C , 23-H ) :   0.9651 
B( 17-C , 24-H ) :   0.9599 B( 20-C , 21-C ) :   0.9876 B( 20-C , 22-N ) :   0.9391 
B( 20-C , 25-H ) :   0.9659 B( 20-C , 26-H ) :   0.9691 B( 21-C , 30-H ) :   0.9777 
B( 21-C , 31-H ) :   0.9720 

-------
TIMINGS
-------

Total SCF time: 0 days 0 hours 11 min 19 sec 

Total time                  ....     679.931 sec
Sum of individual times     ....     678.825 sec  ( 99.8%)

Fock matrix formation       ....     675.401 sec  ( 99.3%)
  XC integration            ....       7.025 sec  (  1.0% of F)
    Basis function eval.    ....       1.428 sec  ( 20.3% of XC)
    Density eval.           ....       1.964 sec  ( 28.0% of XC)
    XC-Functional eval.     ....       0.409 sec  (  5.8% of XC)
    XC-Potential eval.      ....       2.940 sec  ( 41.8% of XC)
Diagonalization             ....       0.168 sec  (  0.0%)
Density matrix formation    ....       0.025 sec  (  0.0%)
Population analysis         ....       0.106 sec  (  0.0%)
Initial guess               ....       0.152 sec  (  0.0%)
Orbital Transformation      ....       0.000 sec  (  0.0%)
Orbital Orthonormalization  ....       0.129 sec  (  0.0%)
DIIS solution               ....       0.044 sec  (  0.0%)
SOSCF solution              ....       0.629 sec  (  0.1%)
Grid generation             ....       2.300 sec  (  0.3%)


-------------------------------------------------------------------------------
                          DFT DISPERSION CORRECTION                            
                                                                               
                              DFTD3 V3.1  Rev 1                                
                              USING zero damping                               
-------------------------------------------------------------------------------
The omegaB97X-D3 functional is recognized. Fit by Chai et al.
Active option DFTDOPT                   ...         3   

molecular C6(AA) [au] = 7701.839818 


            DFT-D V3
 parameters
 s6 scaling factor         :     1.0000 
 rs6 scaling factor        :     1.2810 
 s8 scaling factor         :     1.0000 
 rs8 scaling factor        :     1.0940 
 Damping factor alpha6     :    14.0000 
 Damping factor alpha8     :    16.0000 
 ad hoc parameters k1-k3   :    16.0000     1.3333    -4.0000 

 Edisp/kcal,au: -8.790894801837  -0.014009181100 
 E6   /kcal   :  -3.924025099 
 E8   /kcal   :  -4.866869703 
 % E8         :  55.362620221 

-------------------------   ----------------
Dispersion correction           -0.014009181
-------------------------   ----------------


-------------------------   --------------------
FINAL SINGLE POINT ENERGY      -556.800742029065
-------------------------   --------------------

                                *** OPTIMIZATION RUN DONE ***

                            ***************************************
                            *     ORCA property calculations      *
                            ***************************************

                                    ---------------------
                                    Active property flags
                                    ---------------------
   (+) Dipole Moment


------------------------------------------------------------------------------
                       ORCA ELECTRIC PROPERTIES CALCULATION
------------------------------------------------------------------------------

Dipole Moment Calculation                       ... on
Quadrupole Moment Calculation                   ... off
Polarizability Calculation                      ... off
GBWName                                         ... TAM.gbw
Electron density file                           ... TAM.scfp
The origin for moment calculation is the CENTER OF MASS  = ( 2.357142,  5.496335  1.092641)

-------------
DIPOLE MOMENT
-------------
                                X             Y             Z
Electronic contribution:      0.45841      -0.37948       2.81484
Nuclear contribution   :     -0.69182       0.37384      -3.67918
                        -----------------------------------------
Total Dipole Moment    :     -0.23341      -0.00564      -0.86434
                        -----------------------------------------
Magnitude (a.u.)       :      0.89532
Magnitude (Debye)      :      2.27571



--------------------
Rotational spectrum 
--------------------
 
Rotational constants in cm-1:     0.033776     0.032932     0.017966 
Rotational constants in MHz :  1012.590833   987.281143   538.604530 

 Dipole components along the rotational axes: 
x,y,z [a.u.] :    -0.045813    -0.181343    -0.875560 
x,y,z [Debye]:    -0.116448    -0.460938    -2.225497 

 
--------------------------------------------------------------------------
[[38741,1],2]: A high-performance Open MPI point-to-point messaging module
was unable to find any relevant network interfaces:

Module: OpenFabrics (openib)
  Host: compute-0-8

Another transport will be used instead, although this may result in
lower performance.

NOTE: You can disable this warning by setting the MCA parameter
btl_base_warn_component_unused to 0.
--------------------------------------------------------------------------
[compute-0-8.local:19397] 3 more processes have sent help message help-mpi-btl-base.txt / btl:no-nics
[compute-0-8.local:19397] Set MCA parameter "orte_base_help_aggregate" to 0 to see all help / error messages

Timings for individual modules:

Sum of individual times         ...    35005.356 sec (= 583.423 min)
GTO integral calculation        ...      109.923 sec (=   1.832 min)   0.3 %
SCF iterations                  ...    19938.448 sec (= 332.307 min)  57.0 %
SCF Gradient evaluation         ...    14946.044 sec (= 249.101 min)  42.7 %
Geometry relaxation             ...       10.941 sec (=   0.182 min)   0.0 %
                             ****ORCA TERMINATED NORMALLY****
TOTAL RUN TIME: 0 days 9 hours 43 minutes 45 seconds 337 msec
