Warning: no access to tty (Bad file descriptor).
Thus no job control in this shell.

                                 *****************
                                 * O   R   C   A *
                                 *****************

           --- An Ab Initio, DFT and Semiempirical electronic structure package ---

                  #######################################################
                  #                        -***-                        #
                  #          Department of theory and spectroscopy      #
                  #               Directorship: Frank Neese             #
                  #        Max Planck Institute fuer Kohlenforschung    #
                  #                Kaiser Wilhelm Platz 1               #
                  #                 D-45470 Muelheim/Ruhr               #
                  #                      Germany                        #
                  #                                                     #
                  #                  All rights reserved                #
                  #                        -***-                        #
                  #######################################################


                         Program Version 4.2.1 -  RELEASE  -


 With contributions from (in alphabetic order):
   Daniel Aravena         : Magnetic Suceptibility
   Michael Atanasov       : Ab Initio Ligand Field Theory (pilot matlab implementation)
   Alexander A. Auer      : GIAO ZORA, VPT2
   Ute Becker             : Parallelization
   Giovanni Bistoni       : ED, misc. LED, open-shell LED, HFLD
   Martin Brehm           : Molecular dynamics
   Dmytro Bykov           : SCF Hessian
   Vijay G. Chilkuri      : MRCI spin determinant printing, contributions to CSF-ICE
   Dipayan Datta          : RHF DLPNO-CCSD density
   Achintya Kumar Dutta   : EOM-CC, STEOM-CC
   Dmitry Ganyushin       : Spin-Orbit,Spin-Spin,Magnetic field MRCI
   Miquel Garcia          : C-PCM Hessian, Gaussian charge scheme
   Yang Guo               : DLPNO-NEVPT2, CIM, IAO-localization
   Andreas Hansen         : Spin unrestricted coupled pair/coupled cluster methods
   Benjamin Helmich-Paris : CASSCF linear response (MC-RPA)
   Lee Huntington         : MR-EOM, pCC
   Robert Izsak           : Overlap fitted RIJCOSX, COSX-SCS-MP3, EOM
   Christian Kollmar      : KDIIS, OOCD, Brueckner-CCSD(T), CCSD density
   Simone Kossmann        : Meta GGA functionals, TD-DFT gradient, OOMP2, MP2 Hessian
   Martin Krupicka        : AUTO-CI
   Lucas Lang             : DCDCAS
   Dagmar Lenk            : GEPOL surface, SMD
   Dimitrios Liakos       : Extrapolation schemes; Compound Job, initial MDCI parallelization
   Dimitrios Manganas     : Further ROCIS development; embedding schemes
   Dimitrios Pantazis     : SARC Basis sets
   Taras Petrenko         : DFT Hessian,TD-DFT gradient, ASA, ECA, R-Raman, ABS, FL, XAS/XES, NRVS
   Peter Pinski           : DLPNO-MP2, DLPNO-MP2 Gradient
   Christoph Reimann      : Effective Core Potentials
   Marius Retegan         : Local ZFS, SOC
   Christoph Riplinger    : Optimizer, TS searches, QM/MM, DLPNO-CCSD(T), (RO)-DLPNO pert. Triples
   Tobias Risthaus        : Range-separated hybrids, TD-DFT gradient, RPA, STAB
   Michael Roemelt        : Original ROCIS implementation
   Masaaki Saitow         : Open-shell DLPNO-CCSD energy and density
   Barbara Sandhoefer     : DKH picture change effects
   Avijit Sen             : IP-ROCIS
   Kantharuban Sivalingam : CASSCF convergence, NEVPT2, FIC-MRCI
   Bernardo de Souza      : ESD, SOC TD-DFT
   Georgi Stoychev        : AutoAux, RI-MP2 NMR
   Willem Van den Heuvel  : Paramagnetic NMR
   Boris Wezisla          : Elementary symmetry handling
   Frank Wennmohs         : Technical directorship


 We gratefully acknowledge several colleagues who have allowed us to
 interface, adapt or use parts of their codes:
   Stefan Grimme, W. Hujo, H. Kruse,             : VdW corrections, initial TS optimization,
                  C. Bannwarth                     DFT functionals, gCP, sTDA/sTD-DF
   Ed Valeev, F. Pavosevic, A. Kumar             : LibInt (2-el integral package), F12 methods
   Garnet Chan, S. Sharma, J. Yang, R. Olivares  : DMRG
   Ulf Ekstrom                                   : XCFun DFT Library
   Mihaly Kallay                                 : mrcc  (arbitrary order and MRCC methods)
   Andreas Klamt, Michael Diedenhofen            : otool_cosmo (COSMO solvation model)
   Jiri Pittner, Ondrej Demel                    : Mk-CCSD
   Frank Weinhold                                : gennbo (NPA and NBO analysis)
   Christopher J. Cramer and Donald G. Truhlar   : smd solvation model
   Lars Goerigk                                  : TD-DFT with DH, B97 family of functionals
   V. Asgeirsson, H. Jonsson                     : NEB implementation
   FAccTs GmbH                                   : IRC, NEB, NEB-TS, Multilevel, MM, QM/MM, CI optimization
   S Lehtola, MJT Oliveira, MAL Marques          : LibXC Library


 Your calculation uses the libint2 library for the computation of 2-el integrals
 For citations please refer to: http://libint.valeyev.net

 Your ORCA version has been built with support for libXC version: 4.2.3
 For citations please refer to: https://tddft.org/programs/libxc/

 This ORCA versions uses:
   CBLAS   interface :  Fast vector & matrix operations
   LAPACKE interface :  Fast linear algebra routines
   SCALAPACK package :  Parallel linear algebra routines


Your calculation utilizes the atom-pairwise dispersion correction
with the zero-damping scheme (D30)
Cite in your paper:
S.Grimme, J.Antony, S.Ehrlich and H.Krieg, J.Chem.Phys., 132, (2010), 154104 
   

XCFun DFT library Copyright 2009-2010 Ulf Ekstrom and contributors.
See http://admol.org/xcfun for more information. This is free soft-
ware; see the source code for copying conditions. There is ABSOLUTELY
NO WARRANTY; not even for MERCHANTABILITY or FITNESS FOR A PARTICULAR
PURPOSE. For details see the documentation. Scientific users of this 
library should cite U. Ekstrom, L. Visscher, R. Bast, A. J. Thorvald-
sen and K. Ruud; J.Chem.Theor.Comp. 2010, DOI: 10.1021/ct100117s
XCFun Version 0.99 
----- Orbital basis set information -----
Your calculation utilizes the basis: def2-TZVP
   F. Weigend and R. Ahlrichs, Phys. Chem. Chem. Phys. 7, 3297 (2005).

----- AuxJ basis set information -----
Your calculation utilizes the auxiliary basis: def2/J
   F. Weigend, Phys. Chem. Chem. Phys. 8, 1057 (2006).

================================================================================
                                        WARNINGS
                       Please study these warnings very carefully!
================================================================================


WARNING: Geometry Optimization
  ===> : Switching off AutoStart
         For restart on a previous wavefunction, please use MOREAD

INFO   : the flag for use of LIBINT has been found!

================================================================================
                                       INPUT FILE
================================================================================
NAME = BTQBT.inp
|  1> # avogadro generated ORCA input file 
|  2> # Basic Mode
|  3> # 
|  4> ! wB97X-D3 OPT def2-TZVP def2/J CPCM
|  5> %cpcm
|  6>   epsilon 3
|  7> end
|  8> %pal
|  9>  nprocs 4
| 10> end
| 11> 
| 12> * xyz 0 1
| 13>    C       -7.35492       -0.15222       -0.00155
| 14>    C       -7.33159       -1.51919       -0.00382
| 15>    S       -5.80456        0.71417       -0.00130
| 16>    H       -8.29177        0.38861        0.00005
| 17>    S       -5.75257       -2.33219       -0.00638
| 18>    H       -8.24946       -2.09165       -0.00408
| 19>    C       -4.77944       -0.79196       -0.00391
| 20>    C       -3.38773       -0.76821       -0.00406
| 21>    C       -2.63893        0.44577       -0.00215
| 22>    C       -2.59792       -1.95592       -0.00618
| 23>    N       -3.21929        1.67643       -0.00001
| 24>    S       -1.95513        2.72108        0.00153
| 25>    N       -0.65604        1.72020       -0.00035
| 26>    C       -1.19405        0.47045       -0.00235
| 27>    C       -1.15303       -1.93125       -0.00637
| 28>    C       -0.40423       -0.71726       -0.00447
| 29>    N       -3.13593       -3.20568       -0.00819
| 30>    N       -0.57267       -3.16191       -0.00854
| 31>    S       -1.83684       -4.20656       -0.01009
| 32>    C        0.98747       -0.69349       -0.00468
| 33>    S        1.96057        0.84676       -0.00234
| 34>    S        2.01262       -2.19959       -0.00743
| 35>    C        3.53961        0.03381       -0.00300
| 36>    C        3.56297       -1.33316       -0.00528
| 37>    H        4.49984       -1.87395       -0.00579
| 38>    H        4.45745        0.60631       -0.00165
| 39> *
| 40> 
| 41> 
| 42>                          ****END OF INPUT****
================================================================================

                       *****************************
                       * Geometry Optimization Run *
                       *****************************

Geometry optimization settings:
Update method            Update   .... BFGS
Choice of coordinates    CoordSys .... Z-matrix Internals
Initial Hessian          InHess   .... Almoef's Model

Convergence Tolerances:
Energy Change            TolE     ....  5.0000e-06 Eh
Max. Gradient            TolMAXG  ....  3.0000e-04 Eh/bohr
RMS Gradient             TolRMSG  ....  1.0000e-04 Eh/bohr
Max. Displacement        TolMAXD  ....  4.0000e-03 bohr
RMS Displacement         TolRMSD  ....  2.0000e-03 bohr
Strict Convergence                ....  False
------------------------------------------------------------------------------
                        ORCA OPTIMIZATION COORDINATE SETUP
------------------------------------------------------------------------------

The optimization will be done in new redundant internal coordinates
Making redundant internal coordinates   ...  (new redundants) done
Evaluating the initial hessian          ...  (Almloef) done
Evaluating the coordinates              ...  done
Calculating the B-matrix                .... done
Calculating the G-matrix                .... done
Diagonalizing the G-matrix              .... done
Small eigenvalue found = 5.564e-03
Small eigenvalue found = 1.737e-02
Small eigenvalue found = 1.847e-02
The first mode is                       ....   72
The number of degrees of freedom        ....   72

    -----------------------------------------------------------------
                    Redundant Internal Coordinates


    -----------------------------------------------------------------
         Definition                    Initial Value    Approx d2E/dq
    -----------------------------------------------------------------
      1. B(C   1,C   0)                  1.3672         0.679455   
      2. B(S   2,C   0)                  1.7760         0.407977   
      3. B(H   3,C   0)                  1.0818         0.371178   
      4. B(S   4,C   1)                  1.7760         0.407964   
      5. B(H   5,C   1)                  1.0818         0.371173   
      6. B(C   6,S   4)                  1.8219         0.344705   
      7. B(C   6,S   2)                  1.8219         0.344702   
      8. B(C   7,C   6)                  1.3919         0.620422   
      9. B(C   8,C   7)                  1.4263         0.546710   
     10. B(C   9,C   7)                  1.4263         0.546705   
     11. B(N  10,C   8)                  1.3606         0.623325   
     12. B(S  11,N  10)                  1.6399         0.602398   
     13. B(N  12,S  11)                  1.6399         0.602396   
     14. B(C  13,N  12)                  1.3606         0.623335   
     15. B(C  13,C   8)                  1.4451         0.510323   
     16. B(C  14,C   9)                  1.4451         0.510304   
     17. B(C  15,C  14)                  1.4264         0.546692   
     18. B(C  15,C  13)                  1.4264         0.546694   
     19. B(N  16,C   9)                  1.3606         0.623314   
     20. B(N  17,C  14)                  1.3606         0.623325   
     21. B(S  18,N  17)                  1.6399         0.602380   
     22. B(S  18,N  16)                  1.6399         0.602396   
     23. B(C  19,C  15)                  1.3919         0.620444   
     24. B(S  20,C  19)                  1.8219         0.344704   
     25. B(S  21,C  19)                  1.8219         0.344712   
     26. B(C  22,S  20)                  1.7760         0.407974   
     27. B(C  23,C  22)                  1.3672         0.679454   
     28. B(C  23,S  21)                  1.7760         0.407959   
     29. B(H  24,C  23)                  1.0817         0.371183   
     30. B(H  25,C  22)                  1.0818         0.371177   
     31. A(C   1,C   0,H   3)          120.9751         0.360290   
     32. A(C   1,C   0,S   2)          118.2200         0.431951   
     33. A(S   2,C   0,H   3)          120.8049         0.347679   
     34. A(S   4,C   1,H   5)          120.8060         0.347676   
     35. A(C   0,C   1,H   5)          120.9733         0.360289   
     36. A(C   0,C   1,S   4)          118.2207         0.431948   
     37. A(C   0,S   2,C   6)           95.0426         0.403769   
     38. A(C   1,S   4,C   6)           95.0420         0.403768   
     39. A(S   4,C   6,C   7)          123.2627         0.412394   
     40. A(S   2,C   6,C   7)          123.2627         0.412393   
     41. A(S   2,C   6,S   4)          113.4746         0.391989   
     42. A(C   8,C   7,C   9)          114.7099         0.414964   
     43. A(C   6,C   7,C   9)          122.6456         0.424430   
     44. A(C   6,C   7,C   8)          122.6445         0.424431   
     45. A(C   7,C   8,N  10)          123.0854         0.422022   
     46. A(N  10,C   8,C  13)          114.2692         0.416871   
     47. A(C   7,C   8,C  13)          122.6454         0.409922   
     48. A(C  14,C   9,N  16)          114.2696         0.416867   
     49. A(C   7,C   9,N  16)          123.0853         0.422021   
     50. A(C   7,C   9,C  14)          122.6451         0.409919   
     51. A(C   8,N  10,S  11)          104.3212         0.450765   
     52. A(N  10,S  11,N  12)          102.8186         0.473658   
     53. A(S  11,N  12,C  13)          104.3208         0.450766   
     54. A(N  12,C  13,C  15)          123.0848         0.422022   
     55. A(C   8,C  13,N  12)          114.2701         0.416873   
     56. A(C   8,C  13,C  15)          122.6451         0.409920   
     57. A(C  15,C  14,N  17)          123.0856         0.422020   
     58. A(C   9,C  14,N  17)          114.2696         0.416869   
     59. A(C   9,C  14,C  15)          122.6448         0.409918   
     60. A(C  13,C  15,C  14)          114.7097         0.414960   
     61. A(C  14,C  15,C  19)          122.6451         0.424431   
     62. A(C  13,C  15,C  19)          122.6451         0.424431   
     63. A(C   9,N  16,S  18)          104.3210         0.450763   
     64. A(C  14,N  17,S  18)          104.3209         0.450762   
     65. A(N  16,S  18,N  17)          102.8189         0.473656   
     66. A(S  20,C  19,S  21)          113.4744         0.391991   
     67. A(C  15,C  19,S  21)          123.2632         0.412398   
     68. A(C  15,C  19,S  20)          123.2624         0.412396   
     69. A(C  19,S  20,C  22)           95.0427         0.403769   
     70. A(C  19,S  21,C  23)           95.0425         0.403768   
     71. A(C  23,C  22,H  25)          120.9748         0.360290   
     72. A(S  20,C  22,H  25)          120.8051         0.347678   
     73. A(S  20,C  22,C  23)          118.2202         0.431950   
     74. A(C  22,C  23,H  24)          120.9739         0.360291   
     75. A(S  21,C  23,H  24)          120.8060         0.347677   
     76. A(S  21,C  23,C  22)          118.2202         0.431947   
     77. D(H   5,C   1,C   0,S   2)   -179.9991         0.032357   
     78. D(S   4,C   1,C   0,H   3)    179.9991         0.032357   
     79. D(H   5,C   1,C   0,H   3)      0.0007         0.032357   
     80. D(S   4,C   1,C   0,S   2)     -0.0008         0.032357   
     81. D(C   6,S   2,C   0,H   3)    179.9796         0.003923   
     82. D(C   6,S   2,C   0,C   1)     -0.0205         0.003923   
     83. D(C   6,S   4,C   1,H   5)   -179.9800         0.003923   
     84. D(C   6,S   4,C   1,C   0)      0.0216         0.003923   
     85. D(C   7,C   6,S   4,C   1)    179.9686         0.003209   
     86. D(S   2,C   6,S   4,C   1)     -0.0340         0.003209   
     87. D(C   7,C   6,S   2,C   0)   -179.9689         0.003209   
     88. D(S   4,C   6,S   2,C   0)      0.0337         0.003209   
     89. D(C   9,C   7,C   6,S   2)   -179.9969         0.026638   
     90. D(C   8,C   7,C   6,S   4)    179.9981         0.026638   
     91. D(C   8,C   7,C   6,S   2)      0.0010         0.026638   
     92. D(C   9,C   7,C   6,S   4)      0.0002         0.026638   
     93. D(C  13,C   8,C   7,C   9)      0.0001         0.020439   
     94. D(C  13,C   8,C   7,C   6)   -179.9979         0.020439   
     95. D(N  10,C   8,C   7,C   9)    179.9991         0.020439   
     96. D(N  10,C   8,C   7,C   6)      0.0011         0.020439   
     97. D(N  16,C   9,C   7,C   8)   -179.9997         0.020438   
     98. D(C  14,C   9,C   7,C   8)      0.0003         0.020438   
     99. D(N  16,C   9,C   7,C   6)     -0.0017         0.020438   
    100. D(C  14,C   9,C   7,C   6)    179.9984         0.020438   
    101. D(S  11,N  10,C   8,C  13)     -0.0006         0.028528   
    102. D(S  11,N  10,C   8,C   7)   -179.9997         0.028528   
    103. D(N  12,S  11,N  10,C   8)      0.0003         0.007056   
    104. D(C  13,N  12,S  11,N  10)      0.0000         0.007055   
    105. D(C  15,C  13,C   8,C   7)     -0.0001         0.017748   
    106. D(N  12,C  13,C   8,N  10)      0.0007         0.017748   
    107. D(N  12,C  13,C   8,C   7)    179.9998         0.017748   
    108. D(C  15,C  13,N  12,S  11)    179.9995         0.028529   
    109. D(C   8,C  13,N  12,S  11)     -0.0004         0.028529   
    110. D(C  15,C  13,C   8,N  10)   -179.9992         0.017748   
    111. D(N  17,C  14,C   9,N  16)      0.0006         0.017747   
    112. D(N  17,C  14,C   9,C   7)   -179.9995         0.017747   
    113. D(C  15,C  14,C   9,N  16)    179.9992         0.017747   
    114. D(C  15,C  14,C   9,C   7)     -0.0008         0.017747   
    115. D(C  19,C  15,C  14,N  17)     -0.0002         0.020437   
    116. D(C  19,C  15,C  14,C   9)   -179.9987         0.020437   
    117. D(C  13,C  15,C  14,N  17)    179.9993         0.020437   
    118. D(C  13,C  15,C  14,C   9)      0.0008         0.020437   
    119. D(C  19,C  15,C  13,N  12)     -0.0007         0.020437   
    120. D(C  19,C  15,C  13,C   8)    179.9992         0.020437   
    121. D(C  14,C  15,C  13,N  12)    179.9998         0.020437   
    122. D(C  14,C  15,C  13,C   8)     -0.0003         0.020437   
    123. D(S  18,N  16,C   9,C  14)     -0.0005         0.028527   
    124. D(S  18,N  16,C   9,C   7)    179.9996         0.028527   
    125. D(S  18,N  17,C  14,C  15)   -179.9990         0.028528   
    126. D(S  18,N  17,C  14,C   9)     -0.0004         0.028528   
    127. D(N  16,S  18,N  17,C  14)      0.0001         0.007055   
    128. D(N  17,S  18,N  16,C   9)      0.0002         0.007055   
    129. D(S  21,C  19,C  15,C  14)      0.0016         0.026640   
    130. D(S  21,C  19,C  15,C  13)   -179.9978         0.026640   
    131. D(S  20,C  19,C  15,C  14)    179.9975         0.026640   
    132. D(S  20,C  19,C  15,C  13)     -0.0019         0.026640   
    133. D(C  22,S  20,C  19,S  21)     -0.0345         0.003209   
    134. D(C  22,S  20,C  19,C  15)    179.9693         0.003209   
    135. D(C  23,S  21,C  19,S  20)      0.0346         0.003209   
    136. D(C  23,S  21,C  19,C  15)   -179.9691         0.003209   
    137. D(H  25,C  22,S  20,C  19)   -179.9798         0.003923   
    138. D(C  23,C  22,S  20,C  19)      0.0213         0.003923   
    139. D(C  22,C  23,S  21,C  19)     -0.0217         0.003923   
    140. D(H  24,C  23,C  22,H  25)     -0.0002         0.032357   
    141. D(H  24,C  23,C  22,S  20)    179.9987         0.032357   
    142. D(S  21,C  23,C  22,H  25)   -179.9986         0.032357   
    143. D(S  21,C  23,C  22,S  20)      0.0003         0.032357   
    144. D(H  24,C  23,S  21,C  19)    179.9799         0.003923   
    -----------------------------------------------------------------

Number of atoms                         .... 26
Number of degrees of freedom            .... 144

         *************************************************************
         *                GEOMETRY OPTIMIZATION CYCLE   1            *
         *************************************************************
---------------------------------
CARTESIAN COORDINATES (ANGSTROEM)
---------------------------------
  C     -7.354920   -0.152220   -0.001550
  C     -7.331590   -1.519190   -0.003820
  S     -5.804560    0.714170   -0.001300
  H     -8.291770    0.388610    0.000050
  S     -5.752570   -2.332190   -0.006380
  H     -8.249460   -2.091650   -0.004080
  C     -4.779440   -0.791960   -0.003910
  C     -3.387730   -0.768210   -0.004060
  C     -2.638930    0.445770   -0.002150
  C     -2.597920   -1.955920   -0.006180
  N     -3.219290    1.676430   -0.000010
  S     -1.955130    2.721080    0.001530
  N     -0.656040    1.720200   -0.000350
  C     -1.194050    0.470450   -0.002350
  C     -1.153030   -1.931250   -0.006370
  C     -0.404230   -0.717260   -0.004470
  N     -3.135930   -3.205680   -0.008190
  N     -0.572670   -3.161910   -0.008540
  S     -1.836840   -4.206560   -0.010090
  C      0.987470   -0.693490   -0.004680
  S      1.960570    0.846760   -0.002340
  S      2.012620   -2.199590   -0.007430
  C      3.539610    0.033810   -0.003000
  C      3.562970   -1.333160   -0.005280
  H      4.499840   -1.873950   -0.005790
  H      4.457450    0.606310   -0.001650

----------------------------
CARTESIAN COORDINATES (A.U.)
----------------------------
  NO LB      ZA    FRAG     MASS         X           Y           Z
   0 C     6.0000    0    12.011  -13.898785   -0.287654   -0.002929
   1 C     6.0000    0    12.011  -13.854697   -2.870853   -0.007219
   2 S    16.0000    0    32.060  -10.969029    1.349586   -0.002457
   3 H     1.0000    0     1.008  -15.669174    0.734366    0.000094
   4 S    16.0000    0    32.060  -10.870782   -4.407200   -0.012056
   5 H     1.0000    0     1.008  -15.589220   -3.952646   -0.007710
   6 C     6.0000    0    12.011   -9.031833   -1.496588   -0.007389
   7 C     6.0000    0    12.011   -6.401882   -1.451707   -0.007672
   8 C     6.0000    0    12.011   -4.986855    0.842383   -0.004063
   9 C     6.0000    0    12.011   -4.909357   -3.696153   -0.011679
  10 N     7.0000    0    14.007   -6.083576    3.167994   -0.000019
  11 S    16.0000    0    32.060   -3.694660    5.142096    0.002891
  12 N     7.0000    0    14.007   -1.239736    3.250707   -0.000661
  13 C     6.0000    0    12.011   -2.256427    0.889022   -0.004441
  14 C     6.0000    0    12.011   -2.178911   -3.649534   -0.012038
  15 C     6.0000    0    12.011   -0.763884   -1.355425   -0.008447
  16 N     7.0000    0    14.007   -5.926049   -6.057857   -0.015477
  17 N     7.0000    0    14.007   -1.082189   -5.975144   -0.016138
  18 S    16.0000    0    32.060   -3.471125   -7.949246   -0.019067
  19 C     6.0000    0    12.011    1.866048   -1.310506   -0.008844
  20 S    16.0000    0    32.060    3.704940    1.600145   -0.004422
  21 S    16.0000    0    32.060    3.803301   -4.156623   -0.014041
  22 C     6.0000    0    12.011    6.688894    0.063892   -0.005669
  23 C     6.0000    0    12.011    6.733038   -2.519307   -0.009978
  24 H     1.0000    0     1.008    8.503465   -3.541252   -0.010942
  25 H     1.0000    0     1.008    8.423360    1.145760   -0.003118

--------------------------------
INTERNAL COORDINATES (ANGSTROEM)
--------------------------------
 C      0   0   0     0.000000000000     0.00000000     0.00000000
 C      1   0   0     1.367170955916     0.00000000     0.00000000
 S      1   2   0     1.776020220662   118.22003752     0.00000000
 H      1   2   3     1.081752084075   120.97506831   179.99983716
 S      2   1   3     1.776029198521   118.22071631     0.00000000
 H      2   1   3     1.081755913365   120.97330193   180.00085954
 C      5   2   1     1.821893671623    95.04204617     0.00000000
 C      7   5   2     1.391912644206   123.26266667   179.96857524
 C      8   7   5     1.426342360200   122.64450528   179.99812546
 C      8   7   5     1.426344760077   122.64562576     0.00000000
 N      9   8   7     1.360641887052   123.08536156     0.00000000
 S     11   9   8     1.639937956052   104.32116282   180.00033542
 N     12  11   9     1.639938760107   102.81864470     0.00000000
 C     13  12  11     1.360637285466   104.32082780     0.00000000
 C     10   8   7     1.445100604491   122.64513390   179.99838543
 C     14  13  12     1.426350297402   123.08480820   179.99952091
 N     10   8   7     1.360646485241   123.08530954     0.00000000
 N     15  10   8     1.360641934566   114.26964054   180.00052914
 S     17  10   8     1.639938783156   104.32099550   179.99959144
 C     16  14  13     1.391902994824   122.64513423     0.00000000
 S     20  16  14     1.821894384453   123.26236336     0.00000000
 S     20  16  14     1.821888387086   123.26322514   180.00216102
 C     21  20  16     1.776022370270    95.04273241   179.96926022
 C     23  21  20     1.367171484818   118.22015803     0.00000000
 H     24  23  21     1.081748344625   120.97388273   179.99873540
 H     23  21  20     1.081752438453   120.80507236   180.02018995

---------------------------
INTERNAL COORDINATES (A.U.)
---------------------------
 C      0   0   0     0.000000000000     0.00000000     0.00000000
 C      1   0   0     2.583578684932     0.00000000     0.00000000
 S      1   2   0     3.356191825357   118.22003752     0.00000000
 H      1   2   3     2.044215183700   120.97506831   179.99983716
 S      2   1   3     3.356208791053   118.22071631     0.00000000
 H      2   1   3     2.044222420010   120.97330193   180.00085954
 C      5   2   1     3.442880084492    95.04204617     0.00000000
 C      7   5   2     2.630333699891   123.26266667   179.96857524
 C      8   7   5     2.695396433988   122.64450528   179.99812546
 C      8   7   5     2.695400969100   122.64562576     0.00000000
 N      9   8   7     2.571240532870   123.08536156     0.00000000
 S     11   9   8     3.099033613561   104.32116282   180.00033542
 N     12  11   9     3.099035133004   102.81864470     0.00000000
 C     13  12  11     2.571231837133   104.32082780     0.00000000
 C     10   8   7     2.730844378452   122.64513390   179.99838543
 C     14  13  12     2.695411433128   123.08480820   179.99952091
 N     10   8   7     2.571249222189   123.08530954     0.00000000
 N     15  10   8     2.571240622659   114.26964054   180.00052914
 S     17  10   8     3.099035176561   104.32099550   179.99959144
 C     16  14  13     2.630315465202   122.64513423     0.00000000
 S     20  16  14     3.442881431544   123.26236336     0.00000000
 S     20  16  14     3.442870098165   123.26322514   180.00216102
 C     21  20  16     3.356195887528    95.04273241   179.96926022
 C     23  21  20     2.583579684413   118.22015803     0.00000000
 H     24  23  21     2.044208117165   120.97388273   179.99873540
 H     23  21  20     2.044215853379   120.80507236   180.02018995

---------------------
BASIS SET INFORMATION
---------------------
There are 4 groups of distinct atoms

 Group   1 Type C   : 11s6p2d1f contracted to 5s3p2d1f pattern {62111/411/11/1}
 Group   2 Type S   : 14s9p3d1f contracted to 5s5p2d1f pattern {73211/51111/21/1}
 Group   3 Type H   : 5s1p contracted to 3s1p pattern {311/1}
 Group   4 Type N   : 11s6p2d1f contracted to 5s3p2d1f pattern {62111/411/11/1}

Atom   0C    basis set group =>   1
Atom   1C    basis set group =>   1
Atom   2S    basis set group =>   2
Atom   3H    basis set group =>   3
Atom   4S    basis set group =>   2
Atom   5H    basis set group =>   3
Atom   6C    basis set group =>   1
Atom   7C    basis set group =>   1
Atom   8C    basis set group =>   1
Atom   9C    basis set group =>   1
Atom  10N    basis set group =>   4
Atom  11S    basis set group =>   2
Atom  12N    basis set group =>   4
Atom  13C    basis set group =>   1
Atom  14C    basis set group =>   1
Atom  15C    basis set group =>   1
Atom  16N    basis set group =>   4
Atom  17N    basis set group =>   4
Atom  18S    basis set group =>   2
Atom  19C    basis set group =>   1
Atom  20S    basis set group =>   2
Atom  21S    basis set group =>   2
Atom  22C    basis set group =>   1
Atom  23C    basis set group =>   1
Atom  24H    basis set group =>   3
Atom  25H    basis set group =>   3
---------------------------------
AUXILIARY/J BASIS SET INFORMATION
---------------------------------
There are 4 groups of distinct atoms

 Group   1 Type C   : 12s5p4d2f1g contracted to 6s4p3d1f1g pattern {711111/2111/211/2/1}
 Group   2 Type S   : 14s5p5d2f1g contracted to 8s4p3d1f1g pattern {71111111/2111/311/2/1}
 Group   3 Type H   : 5s2p1d contracted to 3s1p1d pattern {311/2/1}
 Group   4 Type N   : 12s5p4d2f1g contracted to 6s4p3d1f1g pattern {711111/2111/211/2/1}

Atom   0C    basis set group =>   1
Atom   1C    basis set group =>   1
Atom   2S    basis set group =>   2
Atom   3H    basis set group =>   3
Atom   4S    basis set group =>   2
Atom   5H    basis set group =>   3
Atom   6C    basis set group =>   1
Atom   7C    basis set group =>   1
Atom   8C    basis set group =>   1
Atom   9C    basis set group =>   1
Atom  10N    basis set group =>   4
Atom  11S    basis set group =>   2
Atom  12N    basis set group =>   4
Atom  13C    basis set group =>   1
Atom  14C    basis set group =>   1
Atom  15C    basis set group =>   1
Atom  16N    basis set group =>   4
Atom  17N    basis set group =>   4
Atom  18S    basis set group =>   2
Atom  19C    basis set group =>   1
Atom  20S    basis set group =>   2
Atom  21S    basis set group =>   2
Atom  22C    basis set group =>   1
Atom  23C    basis set group =>   1
Atom  24H    basis set group =>   3
Atom  25H    basis set group =>   3
--------------------------------------------------------------------------
[[15220,1],2]: A high-performance Open MPI point-to-point messaging module
was unable to find any relevant network interfaces:

Module: OpenFabrics (openib)
  Host: compute-0-9

Another transport will be used instead, although this may result in
lower performance.

NOTE: You can disable this warning by setting the MCA parameter
btl_base_warn_component_unused to 0.
--------------------------------------------------------------------------


           ************************************************************
           *        Program running with 4 parallel MPI-processes     *
           *              working on a common directory               *
           ************************************************************
------------------------------------------------------------------------------
                           ORCA GTO INTEGRAL CALCULATION
------------------------------------------------------------------------------

                         BASIS SET STATISTICS AND STARTUP INFO

 # of primitive gaussian shells          ...  506
 # of primitive gaussian functions       ... 1146
 # of contracted shells                  ...  270
 # of contracted basis functions         ...  742
 Highest angular momentum                ...    3
 Maximum contraction depth               ...    7
 Integral package used                   ... LIBINT
 Integral threshhold            Thresh   ...  2.500e-11
 Primitive cut-off              TCut     ...  2.500e-12


------------------------------ INTEGRAL EVALUATION ----------------------------


 * One electron integrals 
 Pre-screening matrix                    ... done
 Shell pair data                         ... done (   0.010 sec)

[compute-0-9.local:40539] 3 more processes have sent help message help-mpi-btl-base.txt / btl:no-nics
[compute-0-9.local:40539] Set MCA parameter "orte_base_help_aggregate" to 0 to see all help / error messages
--------------------------------------------------------------------------
[[15168,1],1]: A high-performance Open MPI point-to-point messaging module
was unable to find any relevant network interfaces:

Module: OpenFabrics (openib)
  Host: compute-0-9

Another transport will be used instead, although this may result in
lower performance.

NOTE: You can disable this warning by setting the MCA parameter
btl_base_warn_component_unused to 0.
--------------------------------------------------------------------------


           ************************************************************
           *        Program running with 4 parallel MPI-processes     *
           *              working on a common directory               *
           ************************************************************
-------------------------------------------------------------------------------
                                 ORCA SCF
-------------------------------------------------------------------------------

------------
SCF SETTINGS
------------
Hamiltonian:
 Density Functional     Method          .... DFT(GTOs)
 Exchange Functional    Exchange        .... WB97X-D3
 Correlation Functional Correlation     .... WB97X-D3
 Gradients option       PostSCFGGA      .... off
 Hybrid DFT is turned on
   Fraction HF Exchange ScalHFX         ....  0.195728
   Scaling of DF-GGA-X  ScalDFX         ....  0.000000
   Scaling of DF-GGA-C  ScalDFC         ....  1.000000
   Scaling of DF-LDA-C  ScalLDAC        ....  1.000000
   Perturbative correction              ....  0.000000
   Density functional embedding theory  .... OFF
 Long-range corrected/Screened/Range-Separated Hybrid DFT is turned on
   Amount of maximum screened exact exchange              ....  0.804272
   Range separation parameter mu (erf(mu*r12)/r12)        ....  0.250000


General Settings:
 Integral files         IntName         .... BTQBT
 Hartree-Fock type      HFTyp           .... RHF
 Total Charge           Charge          ....    0
 Multiplicity           Mult            ....    1
 Number of Electrons    NEL             ....  200
 Basis Dimension        Dim             ....  742
 Nuclear Repulsion      ENuc            ....   2591.7090480559 Eh

Convergence Acceleration:
 DIIS                   CNVDIIS         .... on
   Start iteration      DIISMaxIt       ....    12
   Startup error        DIISStart       ....  0.200000
   # of expansion vecs  DIISMaxEq       ....     5
   Bias factor          DIISBfac        ....   1.050
   Max. coefficient     DIISMaxC        ....  10.000
 Newton-Raphson         CNVNR           .... off
 SOSCF                  CNVSOSCF        .... on
   Start iteration      SOSCFMaxIt      ....   150
   Startup grad/error   SOSCFStart      ....  0.003300
 Level Shifting         CNVShift        .... on
   Level shift para.    LevelShift      ....    0.2500
   Turn off err/grad.   ShiftErr        ....    0.0010
 Zerner damping         CNVZerner       .... off
 Static damping         CNVDamp         .... on
   Fraction old density DampFac         ....    0.7000
   Max. Damping (<1)    DampMax         ....    0.9800
   Min. Damping (>=0)   DampMin         ....    0.0000
   Turn off err/grad.   DampErr         ....    0.1000
 Fernandez-Rico         CNVRico         .... off

SCF Procedure:
 Maximum # iterations   MaxIter         ....   125
 SCF integral mode      SCFMode         .... Direct
   Integral package                     .... LIBINT
 Reset frequency        DirectResetFreq ....    20
 Integral Threshold     Thresh          ....  2.500e-11 Eh
 Primitive CutOff       TCut            ....  2.500e-12 Eh

Convergence Tolerance:
 Convergence Check Mode ConvCheckMode   .... Total+1el-Energy
 Convergence forced     ConvForced      .... 0
 Energy Change          TolE            ....  1.000e-08 Eh
 1-El. energy change                    ....  1.000e-05 Eh
 Orbital Gradient       TolG            ....  1.000e-05
 Orbital Rotation angle TolX            ....  1.000e-05
 DIIS Error             TolErr          ....  5.000e-07


Diagonalization of the overlap matrix:
Smallest eigenvalue                        ... 6.634e-06
Time for diagonalization                   ...    0.296 sec
Threshold for overlap eigenvalues          ... 1.000e-08
Number of eigenvalues below threshold      ... 0
Time for construction of square roots      ...    0.098 sec
Total time needed                          ...    0.397 sec

-------------------
DFT GRID GENERATION
-------------------

General Integration Accuracy     IntAcc      ...  4.340
Radial Grid Type                 RadialGrid  ... Gauss-Chebyshev
Angular Grid (max. acc.)         AngularGrid ... Lebedev-110
Angular grid pruning method      GridPruning ... 3 (G Style)
Weight generation scheme         WeightScheme... Becke
Basis function cutoff            BFCut       ...    1.0000e-11
Integration weight cutoff        WCut        ...    1.0000e-14
Grids for H and He will be reduced by one unit

# of grid points (after initial pruning)     ...  40692 (   0.0 sec)
# of grid points (after weights+screening)   ...  37224 (   0.1 sec)
nearest neighbour list constructed           ...    0.0 sec
Grid point re-assignment to atoms done       ...    0.0 sec
Grid point division into batches done        ...    0.0 sec
Reduced shell lists constructed in    0.3 sec

Total number of grid points                  ...    37224
Total number of batches                      ...      594
Average number of points per batch           ...       62
Average number of grid points per atom       ...     1432
Average number of shells per batch           ...    99.84 (36.98%)
Average number of basis functions per batch  ...   274.65 (37.02%)
Average number of large shells per batch     ...    67.35 (67.46%)
Average number of large basis fcns per batch ...   186.23 (67.81%)
Maximum spatial batch extension              ...  20.44, 19.25, 27.04 au
Average spatial batch extension              ...   0.82,  1.01,  1.41 au

Time for grid setup =    0.447 sec

------------------------------
INITIAL GUESS: MODEL POTENTIAL
------------------------------
Loading Hartree-Fock densities                     ... done
Calculating cut-offs                               ... done
Setting up the integral package                    ... done
Initializing the effective Hamiltonian             ... done
Starting the Coulomb interaction                   ... done (   0.7 sec)
Reading the grid                                   ... done
Mapping shells                                     ... done
Starting the XC term evaluation                    ... done (   0.8 sec)
  promolecular density results
     # of electrons  =    200.002088190
     EX              =   -238.074067499
     EC              =     -7.329683089
     EX+EC           =   -245.403750588
Transforming the Hamiltonian                       ... done (   0.1 sec)
Diagonalizing the Hamiltonian                      ... done (   0.2 sec)
Back transforming the eigenvectors                 ... done (   0.0 sec)
Now organizing SCF variables                       ... done
                      ------------------
                      INITIAL GUESS DONE (   2.5 sec)
                      ------------------

--------------------
CPCM SOLVATION MODEL
--------------------
CPCM parameters:
  Epsilon                                         ...       3.0000
  Refrac                                          ...       1.3300
  Rsolv                                           ...       1.3000
  Surface type                                    ...    GEPOL SES
  Epsilon function type                           ...         CPCM
Radii:
 Radius for C  used is    3.7795 Bohr (=   2.0000 Ang.)
 Radius for S  used is    4.0818 Bohr (=   2.1600 Ang.)
 Radius for H  used is    2.4566 Bohr (=   1.3000 Ang.)
 Radius for N  used is    3.4582 Bohr (=   1.8300 Ang.)
Calculating surface                               ...        done! (  0.1s)
GEPOL surface points                              ...          901
GEPOL Volume                                      ...    2505.3915
GEPOL Surface-area                                ...    1170.6352
Calculating surface distance matrix               ...        done! (  0.0s)
Performing Cholesky decomposition & store         ...        done! (  0.0s)
Overall time for CPCM initialization              ...                 0.1s
--------------
SCF ITERATIONS
--------------
ITER       Energy         Delta-E        Max-DP      RMS-DP      [F,P]     Damp
               ***  Starting incremental Fock matrix formation  ***
[compute-0-9.local:40559] 3 more processes have sent help message help-mpi-btl-base.txt / btl:no-nics
[compute-0-9.local:40559] Set MCA parameter "orte_base_help_aggregate" to 0 to see all help / error messages
  0  -3067.4005404757   0.000000000000 0.03205514  0.00056015  0.1863509 0.7000
  1  -3067.6054670478  -0.204926572124 0.02568770  0.00044411  0.1005955 0.7000
                               ***Turning on DIIS***
  2  -3067.6991285448  -0.093661496926 0.05087447  0.00098802  0.0448230 0.0000
  3  -3067.8413841404  -0.142255595634 0.03376872  0.00034256  0.0447110 0.0000
  4  -3067.8758558690  -0.034471728611 0.01818472  0.00025247  0.0087367 0.0000
  5  -3067.8783659656  -0.002510096582 0.01090167  0.00012691  0.0034912 0.0000
  6  -3067.8791667751  -0.000800809476 0.00774570  0.00008467  0.0015529 0.0000
  7  -3067.8795053438  -0.000338568680 0.00428825  0.00005085  0.0010198 0.0000
                      *** Initiating the SOSCF procedure ***
                           *** Shutting down DIIS ***
                      *** Re-Reading the Fockian *** 
                      *** Removing any level shift *** 
ITER      Energy       Delta-E        Grad      Rot      Max-DP    RMS-DP
  8  -3067.87963702  -0.0001316754  0.002281  0.002281  0.002673  0.000039
               *** Restarting incremental Fock matrix formation ***
  9  -3067.87969248  -0.0000554561  0.000220  0.000739  0.000530  0.000007
 10  -3067.87969462  -0.0000021476  0.000299  0.001065  0.000434  0.000006
 11  -3067.87969668  -0.0000020607  0.000089  0.000602  0.000232  0.000003
 12  -3067.87969686  -0.0000001746  0.000029  0.000039  0.000090  0.000001
 13  -3067.87969693  -0.0000000673  0.000012  0.000047  0.000038  0.000000
 14  -3067.87969692   0.0000000104  0.000005  0.000022  0.000022  0.000000
                  ***Gradient check signals convergence***
              ***Rediagonalizing the Fockian in SOSCF/NRSCF***

               *****************************************************
               *                     SUCCESS                       *
               *           SCF CONVERGED AFTER  15 CYCLES          *
               *****************************************************

Setting up the final grid:

General Integration Accuracy     IntAcc      ...  4.670
Radial Grid Type                 RadialGrid  ... Gauss-Chebyshev
Angular Grid (max. acc.)         AngularGrid ... Lebedev-302
Angular grid pruning method      GridPruning ... 3 (G Style)
Weight generation scheme         WeightScheme... Becke
Basis function cutoff            BFCut       ...    1.0000e-11
Integration weight cutoff        WCut        ...    1.0000e-14
Grids for H and He will be reduced by one unit

# of grid points (after initial pruning)     ... 154044 (   0.0 sec)
# of grid points (after weights+screening)   ... 138648 (   0.5 sec)
nearest neighbour list constructed           ...    0.0 sec
Grid point re-assignment to atoms done       ...    0.0 sec
Grid point division into batches done        ...    0.8 sec
Reduced shell lists constructed in    1.6 sec

Total number of grid points                  ...   138648
Total number of batches                      ...     2180
Average number of points per batch           ...       63
Average number of grid points per atom       ...     5333
Average number of shells per batch           ...    87.53 (32.42%)
Average number of basis functions per batch  ...   238.55 (32.15%)
Average number of large shells per batch     ...    58.31 (66.61%)
Average number of large basis fcns per batch ...   159.88 (67.02%)
Maximum spatial batch extension              ...  15.49, 15.58, 23.20 au
Average spatial batch extension              ...   0.57,  0.65,  0.73 au

Final grid set up in    2.3 sec
Final integration                            ... done (   3.3 sec)
Change in XC energy                          ...     0.018490461
Integrated number of electrons               ...   200.000081614
Previous integrated no of electrons          ...   200.002435243

----------------
TOTAL SCF ENERGY
----------------

Total Energy       :        -3067.86120646 Eh          -83480.74751 eV

Components:
Nuclear Repulsion  :         2591.70904806 Eh           70523.98857 eV
Electronic Energy  :        -5659.57025451 Eh         -154004.73607 eV
One Electron Energy:        -9383.21192104 Eh         -255330.17711 eV
Two Electron Energy:         3723.64166653 Eh          101325.44103 eV
CPCM Dielectric    :           -0.00960539 Eh              -0.26138 eV

Virial components:
Potential Energy   :        -6127.61046169 Eh         -166740.75760 eV
Kinetic Energy     :         3059.74925524 Eh           83260.01009 eV
Virial Ratio       :            2.00265118


DFT components:
N(Alpha)           :      100.000040807233 electrons
N(Beta)            :      100.000040807233 electrons
N(Total)           :      200.000081614466 electrons
E(XC)              :     -179.635534988526 Eh       
DFET-embed. en.    :        0.000000000000 Eh       
CPCM Solvation Model Properties:
Surface-charge          :           -0.03414693
Charge-correction       :            0.00006782 Eh               0.00185 eV
Free-energy (cav+disp)  :            0.00563862 Eh               0.15343 eV
Corrected G(solv)       :        -3067.85550002 Eh          -83480.59223 eV

---------------
SCF CONVERGENCE
---------------

  Last Energy change         ...   -2.0564e-09  Tolerance :   1.0000e-08
  Last MAX-Density change    ...    2.3419e-05  Tolerance :   1.0000e-07
  Last RMS-Density change    ...    2.3479e-07  Tolerance :   5.0000e-09
  Last Orbital Gradient      ...    2.1919e-06  Tolerance :   1.0000e-05
  Last Orbital Rotation      ...    1.6875e-05  Tolerance :   1.0000e-05

             **** THE GBW FILE WAS UPDATED (BTQBT.gbw) ****
             **** DENSITY FILE WAS UPDATED (BTQBT.scfp) ****
             **** ENERGY FILE WAS UPDATED (BTQBT.en.tmp) ****
             **** THE GBW FILE WAS UPDATED (BTQBT.gbw) ****
             **** DENSITY FILE WAS UPDATED (BTQBT.scfp) ****
----------------
ORBITAL ENERGIES
----------------

  NO   OCC          E(Eh)            E(eV) 
   0   2.0000     -89.028195     -2422.5803 
   1   2.0000     -89.028194     -2422.5803 
   2   2.0000     -89.001780     -2421.8616 
   3   2.0000     -89.001769     -2421.8613 
   4   2.0000     -89.001761     -2421.8610 
   5   2.0000     -89.001746     -2421.8606 
   6   2.0000     -14.466466      -393.6526 
   7   2.0000     -14.466459      -393.6524 
   8   2.0000     -14.466431      -393.6516 
   9   2.0000     -14.466420      -393.6513 
  10   2.0000     -10.384552      -282.5780 
  11   2.0000     -10.384535      -282.5776 
  12   2.0000     -10.349562      -281.6259 
  13   2.0000     -10.349546      -281.6255 
  14   2.0000     -10.349172      -281.6153 
  15   2.0000     -10.349157      -281.6149 
  16   2.0000     -10.327889      -281.0361 
  17   2.0000     -10.327880      -281.0359 
  18   2.0000     -10.327206      -281.0176 
  19   2.0000     -10.327197      -281.0173 
  20   2.0000     -10.312812      -280.6259 
  21   2.0000     -10.312782      -280.6251 
  22   2.0000      -8.118530      -220.9164 
  23   2.0000      -8.118530      -220.9164 
  24   2.0000      -8.094196      -220.2543 
  25   2.0000      -8.094184      -220.2539 
  26   2.0000      -8.094173      -220.2537 
  27   2.0000      -8.094159      -220.2533 
  28   2.0000      -6.072757      -165.2481 
  29   2.0000      -6.072756      -165.2481 
  30   2.0000      -6.066930      -165.0896 
  31   2.0000      -6.066928      -165.0895 
  32   2.0000      -6.064231      -165.0161 
  33   2.0000      -6.064231      -165.0161 
  34   2.0000      -6.047679      -164.5657 
  35   2.0000      -6.047674      -164.5656 
  36   2.0000      -6.047668      -164.5654 
  37   2.0000      -6.047659      -164.5652 
  38   2.0000      -6.043524      -164.4527 
  39   2.0000      -6.043513      -164.4523 
  40   2.0000      -6.043499      -164.4520 
  41   2.0000      -6.043485      -164.4516 
  42   2.0000      -6.039131      -164.3331 
  43   2.0000      -6.039119      -164.3328 
  44   2.0000      -6.039109      -164.3325 
  45   2.0000      -6.039094      -164.3321 
  46   2.0000      -1.139824       -31.0162 
  47   2.0000      -1.132810       -30.8253 
  48   2.0000      -1.028974       -27.9998 
  49   2.0000      -1.008893       -27.4534 
  50   2.0000      -1.007797       -27.4235 
  51   2.0000      -0.989764       -26.9329 
  52   2.0000      -0.974790       -26.5254 
  53   2.0000      -0.916144       -24.9295 
  54   2.0000      -0.888104       -24.1665 
  55   2.0000      -0.881025       -23.9739 
  56   2.0000      -0.876298       -23.8453 
  57   2.0000      -0.873860       -23.7789 
  58   2.0000      -0.832815       -22.6620 
  59   2.0000      -0.792695       -21.5703 
  60   2.0000      -0.762470       -20.7479 
  61   2.0000      -0.730668       -19.8825 
  62   2.0000      -0.708076       -19.2677 
  63   2.0000      -0.705417       -19.1954 
  64   2.0000      -0.681130       -18.5345 
  65   2.0000      -0.674540       -18.3552 
  66   2.0000      -0.654746       -17.8166 
  67   2.0000      -0.625957       -17.0331 
  68   2.0000      -0.623924       -16.9778 
  69   2.0000      -0.607054       -16.5188 
  70   2.0000      -0.598968       -16.2988 
  71   2.0000      -0.580471       -15.7954 
  72   2.0000      -0.554123       -15.0785 
  73   2.0000      -0.548801       -14.9336 
  74   2.0000      -0.539270       -14.6743 
  75   2.0000      -0.537124       -14.6159 
  76   2.0000      -0.511050       -13.9064 
  77   2.0000      -0.498712       -13.5707 
  78   2.0000      -0.496593       -13.5130 
  79   2.0000      -0.490786       -13.3550 
  80   2.0000      -0.489132       -13.3100 
  81   2.0000      -0.486231       -13.2310 
  82   2.0000      -0.481482       -13.1018 
  83   2.0000      -0.477293       -12.9878 
  84   2.0000      -0.452876       -12.3234 
  85   2.0000      -0.452294       -12.3075 
  86   2.0000      -0.446637       -12.1536 
  87   2.0000      -0.446414       -12.1475 
  88   2.0000      -0.429238       -11.6802 
  89   2.0000      -0.420101       -11.4315 
  90   2.0000      -0.410292       -11.1646 
  91   2.0000      -0.402583       -10.9548 
  92   2.0000      -0.392405       -10.6779 
  93   2.0000      -0.384789       -10.4706 
  94   2.0000      -0.379076       -10.3152 
  95   2.0000      -0.379040       -10.3142 
  96   2.0000      -0.360075        -9.7982 
  97   2.0000      -0.353704        -9.6248 
  98   2.0000      -0.303952        -8.2710 
  99   2.0000      -0.251831        -6.8527 
 100   0.0000      -0.021675        -0.5898 
 101   0.0000      -0.008250        -0.2245 
 102   0.0000       0.008033         0.2186 
 103   0.0000       0.053557         1.4574 
 104   0.0000       0.055773         1.5177 
 105   0.0000       0.057329         1.5600 
 106   0.0000       0.060987         1.6595 
 107   0.0000       0.092331         2.5124 
 108   0.0000       0.095366         2.5950 
 109   0.0000       0.104341         2.8393 
 110   0.0000       0.108897         2.9632 
 111   0.0000       0.113782         3.0962 
 112   0.0000       0.116828         3.1790 
 113   0.0000       0.125002         3.4015 
 114   0.0000       0.130684         3.5561 
 115   0.0000       0.139025         3.7831 
 116   0.0000       0.142170         3.8686 
 117   0.0000       0.151522         4.1231 
 118   0.0000       0.152954         4.1621 
 119   0.0000       0.154258         4.1976 
 120   0.0000       0.164626         4.4797 
 121   0.0000       0.165142         4.4937 
 122   0.0000       0.172490         4.6937 
 123   0.0000       0.193254         5.2587 
 124   0.0000       0.199575         5.4307 
 125   0.0000       0.220004         5.9866 
 126   0.0000       0.225234         6.1289 
 127   0.0000       0.235644         6.4122 
 128   0.0000       0.242461         6.5977 
 129   0.0000       0.244971         6.6660 
 130   0.0000       0.245533         6.6813 
 131   0.0000       0.261274         7.1096 
 132   0.0000       0.267279         7.2730 
 133   0.0000       0.267460         7.2779 
 134   0.0000       0.269318         7.3285 
 135   0.0000       0.287681         7.8282 
 136   0.0000       0.290546         7.9062 
 137   0.0000       0.294208         8.0058 
 138   0.0000       0.296032         8.0554 
 139   0.0000       0.297246         8.0885 
 140   0.0000       0.307489         8.3672 
 141   0.0000       0.309739         8.4284 
 142   0.0000       0.310934         8.4609 
 143   0.0000       0.312944         8.5156 
 144   0.0000       0.313072         8.5191 
 145   0.0000       0.324041         8.8176 
 146   0.0000       0.326753         8.8914 
 147   0.0000       0.332629         9.0513 
 148   0.0000       0.335585         9.1317 
 149   0.0000       0.336815         9.1652 
 150   0.0000       0.337558         9.1854 
 151   0.0000       0.346352         9.4247 
 152   0.0000       0.347642         9.4598 
 153   0.0000       0.359319         9.7776 
 154   0.0000       0.359620         9.7858 
 155   0.0000       0.360611         9.8127 
 156   0.0000       0.368200        10.0192 
 157   0.0000       0.369044        10.0422 
 158   0.0000       0.370598        10.0845 
 159   0.0000       0.371916        10.1204 
 160   0.0000       0.374959        10.2032 
 161   0.0000       0.388750        10.5784 
 162   0.0000       0.390900        10.6369 
 163   0.0000       0.393992        10.7211 
 164   0.0000       0.395157        10.7528 
 165   0.0000       0.396392        10.7864 
 166   0.0000       0.421494        11.4694 
 167   0.0000       0.422135        11.4869 
 168   0.0000       0.426897        11.6165 
 169   0.0000       0.427523        11.6335 
 170   0.0000       0.430863        11.7244 
 171   0.0000       0.436577        11.8799 
 172   0.0000       0.436688        11.8829 
 173   0.0000       0.439991        11.9728 
 174   0.0000       0.444069        12.0837 
 175   0.0000       0.449022        12.2185 
 176   0.0000       0.450215        12.2510 
 177   0.0000       0.462375        12.5819 
 178   0.0000       0.464017        12.6266 
 179   0.0000       0.466167        12.6850 
 180   0.0000       0.474622        12.9151 
 181   0.0000       0.476359        12.9624 
 182   0.0000       0.480500        13.0751 
 183   0.0000       0.484515        13.1843 
 184   0.0000       0.486194        13.2300 
 185   0.0000       0.499572        13.5941 
 186   0.0000       0.503110        13.6903 
 187   0.0000       0.513421        13.9709 
 188   0.0000       0.522208        14.2100 
 189   0.0000       0.528845        14.3906 
 190   0.0000       0.529707        14.4141 
 191   0.0000       0.530604        14.4385 
 192   0.0000       0.532824        14.4989 
 193   0.0000       0.540018        14.6946 
 194   0.0000       0.544014        14.8034 
 195   0.0000       0.544050        14.8044 
 196   0.0000       0.547343        14.8940 
 197   0.0000       0.548960        14.9380 
 198   0.0000       0.559363        15.2210 
 199   0.0000       0.586706        15.9651 
 200   0.0000       0.587580        15.9889 
 201   0.0000       0.589239        16.0340 
 202   0.0000       0.595794        16.2124 
 203   0.0000       0.598079        16.2745 
 204   0.0000       0.607086        16.5196 
 205   0.0000       0.610758        16.6196 
 206   0.0000       0.623111        16.9557 
 207   0.0000       0.632347        17.2070 
 208   0.0000       0.637440        17.3456 
 209   0.0000       0.642927        17.4949 
 210   0.0000       0.644229        17.5304 
 211   0.0000       0.645232        17.5576 
 212   0.0000       0.653971        17.7955 
 213   0.0000       0.654320        17.8049 
 214   0.0000       0.657559        17.8931 
 215   0.0000       0.663070        18.0431 
 216   0.0000       0.670073        18.2336 
 217   0.0000       0.670601        18.2480 
 218   0.0000       0.682336        18.5673 
 219   0.0000       0.687661        18.7122 
 220   0.0000       0.696220        18.9451 
 221   0.0000       0.697422        18.9778 
 222   0.0000       0.705462        19.1966 
 223   0.0000       0.712790        19.3960 
 224   0.0000       0.722582        19.6625 
 225   0.0000       0.725155        19.7325 
 226   0.0000       0.726111        19.7585 
 227   0.0000       0.728406        19.8209 
 228   0.0000       0.735330        20.0094 
 229   0.0000       0.739871        20.1329 
 230   0.0000       0.756969        20.5982 
 231   0.0000       0.760781        20.7019 
 232   0.0000       0.770767        20.9736 
 233   0.0000       0.773714        21.0538 
 234   0.0000       0.776737        21.1361 
 235   0.0000       0.777115        21.1464 
 236   0.0000       0.777397        21.1540 
 237   0.0000       0.785356        21.3706 
 238   0.0000       0.787835        21.4381 
 239   0.0000       0.802602        21.8399 
 240   0.0000       0.814121        22.1534 
 241   0.0000       0.815530        22.1917 
 242   0.0000       0.818205        22.2645 
 243   0.0000       0.821817        22.3628 
 244   0.0000       0.827588        22.5198 
 245   0.0000       0.857019        23.3207 
 246   0.0000       0.857183        23.3251 
 247   0.0000       0.857520        23.3343 
 248   0.0000       0.860490        23.4151 
 249   0.0000       0.863195        23.4887 
 250   0.0000       0.878852        23.9148 
 251   0.0000       0.882543        24.0152 
 252   0.0000       0.889902        24.2155 
 253   0.0000       0.894771        24.3479 
 254   0.0000       0.913996        24.8711 
 255   0.0000       0.914354        24.8808 
 256   0.0000       0.918289        24.9879 
 257   0.0000       0.921008        25.0619 
 258   0.0000       0.938771        25.5453 
 259   0.0000       0.951566        25.8934 
 260   0.0000       0.952882        25.9292 
 261   0.0000       0.953312        25.9409 
 262   0.0000       0.954293        25.9676 
 263   0.0000       0.995666        27.0934 
 264   0.0000       0.997786        27.1511 
 265   0.0000       1.007014        27.4022 
 266   0.0000       1.013443        27.5772 
 267   0.0000       1.016412        27.6580 
 268   0.0000       1.016423        27.6583 
 269   0.0000       1.032242        28.0887 
 270   0.0000       1.035785        28.1851 
 271   0.0000       1.043319        28.3902 
 272   0.0000       1.058893        28.8139 
 273   0.0000       1.059973        28.8433 
 274   0.0000       1.081773        29.4365 
 275   0.0000       1.084341        29.5064 
 276   0.0000       1.085285        29.5321 
 277   0.0000       1.099418        29.9167 
 278   0.0000       1.102025        29.9876 
 279   0.0000       1.105931        30.0939 
 280   0.0000       1.110906        30.2293 
 281   0.0000       1.137136        30.9430 
 282   0.0000       1.138260        30.9736 
 283   0.0000       1.138665        30.9847 
 284   0.0000       1.142021        31.0760 
 285   0.0000       1.159528        31.5524 
 286   0.0000       1.173344        31.9283 
 287   0.0000       1.177946        32.0535 
 288   0.0000       1.194641        32.5078 
 289   0.0000       1.211192        32.9582 
 290   0.0000       1.213864        33.0309 
 291   0.0000       1.215772        33.0828 
 292   0.0000       1.227634        33.4056 
 293   0.0000       1.229618        33.4596 
 294   0.0000       1.245938        33.9037 
 295   0.0000       1.250462        34.0268 
 296   0.0000       1.258664        34.2500 
 297   0.0000       1.264967        34.4215 
 298   0.0000       1.290956        35.1287 
 299   0.0000       1.300184        35.3798 
 300   0.0000       1.306526        35.5524 
 301   0.0000       1.322965        35.9997 
 302   0.0000       1.328282        36.1444 
 303   0.0000       1.351791        36.7841 
 304   0.0000       1.354837        36.8670 
 305   0.0000       1.368397        37.2360 
 306   0.0000       1.381171        37.5836 
 307   0.0000       1.402825        38.1728 
 308   0.0000       1.403133        38.1812 
 309   0.0000       1.408476        38.3266 
 310   0.0000       1.410660        38.3860 
 311   0.0000       1.411832        38.4179 
 312   0.0000       1.440023        39.1850 
 313   0.0000       1.447958        39.4009 
 314   0.0000       1.454345        39.5747 
 315   0.0000       1.462848        39.8061 
 316   0.0000       1.464451        39.8497 
 317   0.0000       1.468419        39.9577 
 318   0.0000       1.477787        40.2126 
 319   0.0000       1.494726        40.6735 
 320   0.0000       1.499106        40.7927 
 321   0.0000       1.506783        41.0017 
 322   0.0000       1.522500        41.4293 
 323   0.0000       1.526253        41.5315 
 324   0.0000       1.529649        41.6239 
 325   0.0000       1.529807        41.6282 
 326   0.0000       1.531424        41.6722 
 327   0.0000       1.542700        41.9790 
 328   0.0000       1.549041        42.1515 
 329   0.0000       1.557364        42.3780 
 330   0.0000       1.558145        42.3993 
 331   0.0000       1.559580        42.4383 
 332   0.0000       1.574042        42.8319 
 333   0.0000       1.577035        42.9133 
 334   0.0000       1.578655        42.9574 
 335   0.0000       1.582482        43.0615 
 336   0.0000       1.587536        43.1990 
 337   0.0000       1.587652        43.2022 
 338   0.0000       1.593527        43.3621 
 339   0.0000       1.607482        43.7418 
 340   0.0000       1.613004        43.8921 
 341   0.0000       1.613263        43.8991 
 342   0.0000       1.618384        44.0385 
 343   0.0000       1.621080        44.1118 
 344   0.0000       1.621436        44.1215 
 345   0.0000       1.624652        44.2090 
 346   0.0000       1.625564        44.2339 
 347   0.0000       1.631290        44.3897 
 348   0.0000       1.642474        44.6940 
 349   0.0000       1.661690        45.2169 
 350   0.0000       1.662592        45.2414 
 351   0.0000       1.669928        45.4411 
 352   0.0000       1.670562        45.4583 
 353   0.0000       1.673601        45.5410 
 354   0.0000       1.682066        45.7714 
 355   0.0000       1.684129        45.8275 
 356   0.0000       1.688848        45.9559 
 357   0.0000       1.693598        46.0852 
 358   0.0000       1.701225        46.2927 
 359   0.0000       1.708358        46.4868 
 360   0.0000       1.724591        46.9285 
 361   0.0000       1.725763        46.9604 
 362   0.0000       1.736533        47.2535 
 363   0.0000       1.746115        47.5142 
 364   0.0000       1.749887        47.6169 
 365   0.0000       1.752550        47.6893 
 366   0.0000       1.759074        47.8668 
 367   0.0000       1.772221        48.2246 
 368   0.0000       1.778755        48.4024 
 369   0.0000       1.785315        48.5809 
 370   0.0000       1.786673        48.6178 
 371   0.0000       1.787298        48.6349 
 372   0.0000       1.794832        48.8399 
 373   0.0000       1.796087        48.8740 
 374   0.0000       1.821560        49.5672 
 375   0.0000       1.826377        49.6982 
 376   0.0000       1.833253        49.8854 
 377   0.0000       1.841718        50.1157 
 378   0.0000       1.855251        50.4839 
 379   0.0000       1.863063        50.6965 
 380   0.0000       1.868444        50.8430 
 381   0.0000       1.870360        50.8951 
 382   0.0000       1.872662        50.9577 
 383   0.0000       1.875649        51.0390 
 384   0.0000       1.877137        51.0795 
 385   0.0000       1.877787        51.0972 
 386   0.0000       1.888291        51.3830 
 387   0.0000       1.893298        51.5193 
 388   0.0000       1.895063        51.5673 
 389   0.0000       1.895975        51.5921 
 390   0.0000       1.902473        51.7689 
 391   0.0000       1.902883        51.7801 
 392   0.0000       1.902909        51.7808 
 393   0.0000       1.909164        51.9510 
 394   0.0000       1.925053        52.3834 
 395   0.0000       1.929008        52.4910 
 396   0.0000       1.930042        52.5191 
 397   0.0000       1.936153        52.6854 
 398   0.0000       1.939071        52.7648 
 399   0.0000       1.939324        52.7717 
 400   0.0000       1.952331        53.1256 
 401   0.0000       1.955865        53.2218 
 402   0.0000       1.964991        53.4701 
 403   0.0000       1.965411        53.4816 
 404   0.0000       1.972633        53.6781 
 405   0.0000       1.981294        53.9137 
 406   0.0000       1.990344        54.1600 
 407   0.0000       1.991620        54.1947 
 408   0.0000       2.003904        54.5290 
 409   0.0000       2.012355        54.7590 
 410   0.0000       2.024638        55.0932 
 411   0.0000       2.035106        55.3781 
 412   0.0000       2.036177        55.4072 
 413   0.0000       2.057685        55.9925 
 414   0.0000       2.059832        56.0509 
 415   0.0000       2.068895        56.2975 
 416   0.0000       2.069372        56.3105 
 417   0.0000       2.081274        56.6343 
 418   0.0000       2.082138        56.6579 
 419   0.0000       2.082585        56.6700 
 420   0.0000       2.100278        57.1515 
 421   0.0000       2.102264        57.2055 
 422   0.0000       2.108598        57.3779 
 423   0.0000       2.125016        57.8246 
 424   0.0000       2.130021        57.9608 
 425   0.0000       2.134198        58.0745 
 426   0.0000       2.136872        58.1472 
 427   0.0000       2.139137        58.2089 
 428   0.0000       2.151800        58.5535 
 429   0.0000       2.174484        59.1707 
 430   0.0000       2.176104        59.2148 
 431   0.0000       2.178166        59.2709 
 432   0.0000       2.199646        59.8554 
 433   0.0000       2.208313        60.0913 
 434   0.0000       2.209188        60.1151 
 435   0.0000       2.211220        60.1703 
 436   0.0000       2.217688        60.3464 
 437   0.0000       2.252423        61.2915 
 438   0.0000       2.254712        61.3538 
 439   0.0000       2.255625        61.3787 
 440   0.0000       2.262892        61.5764 
 441   0.0000       2.275075        61.9080 
 442   0.0000       2.277197        61.9657 
 443   0.0000       2.296366        62.4873 
 444   0.0000       2.301042        62.6145 
 445   0.0000       2.305896        62.7466 
 446   0.0000       2.314192        62.9724 
 447   0.0000       2.332171        63.4616 
 448   0.0000       2.343253        63.7632 
 449   0.0000       2.366302        64.3904 
 450   0.0000       2.389493        65.0214 
 451   0.0000       2.405729        65.4632 
 452   0.0000       2.407266        65.5050 
 453   0.0000       2.413641        65.6785 
 454   0.0000       2.414126        65.6917 
 455   0.0000       2.420506        65.8653 
 456   0.0000       2.442668        66.4684 
 457   0.0000       2.469871        67.2086 
 458   0.0000       2.485542        67.6350 
 459   0.0000       2.492340        67.8200 
 460   0.0000       2.528512        68.8043 
 461   0.0000       2.529291        68.8255 
 462   0.0000       2.530228        68.8510 
 463   0.0000       2.540286        69.1247 
 464   0.0000       2.550103        69.3918 
 465   0.0000       2.555453        69.5374 
 466   0.0000       2.561072        69.6903 
 467   0.0000       2.566078        69.8265 
 468   0.0000       2.574358        70.0518 
 469   0.0000       2.610789        71.0432 
 470   0.0000       2.611397        71.0597 
 471   0.0000       2.628416        71.5228 
 472   0.0000       2.641964        71.8915 
 473   0.0000       2.653641        72.2092 
 474   0.0000       2.653902        72.2164 
 475   0.0000       2.663061        72.4656 
 476   0.0000       2.663450        72.4762 
 477   0.0000       2.664077        72.4932 
 478   0.0000       2.664225        72.4972 
 479   0.0000       2.682481        72.9940 
 480   0.0000       2.711757        73.7907 
 481   0.0000       2.742943        74.6393 
 482   0.0000       2.743132        74.6444 
 483   0.0000       2.745337        74.7044 
 484   0.0000       2.753902        74.9375 
 485   0.0000       2.782912        75.7269 
 486   0.0000       2.789703        75.9117 
 487   0.0000       2.806907        76.3798 
 488   0.0000       2.813910        76.5704 
 489   0.0000       2.818595        76.6979 
 490   0.0000       2.833703        77.1090 
 491   0.0000       2.833990        77.1168 
 492   0.0000       2.842658        77.3527 
 493   0.0000       2.863453        77.9185 
 494   0.0000       2.867066        78.0168 
 495   0.0000       2.902491        78.9808 
 496   0.0000       2.921028        79.4852 
 497   0.0000       2.928013        79.6753 
 498   0.0000       2.930424        79.7409 
 499   0.0000       2.932668        79.8020 
 500   0.0000       2.937031        79.9207 
 501   0.0000       2.938172        79.9517 
 502   0.0000       2.943152        80.0872 
 503   0.0000       2.953737        80.3753 
 504   0.0000       2.970435        80.8296 
 505   0.0000       2.982369        81.1544 
 506   0.0000       2.994111        81.4739 
 507   0.0000       3.001867        81.6850 
 508   0.0000       3.010887        81.9304 
 509   0.0000       3.015071        82.0442 
 510   0.0000       3.021922        82.2307 
 511   0.0000       3.028467        82.4088 
 512   0.0000       3.031695        82.4966 
 513   0.0000       3.039004        82.6955 
 514   0.0000       3.060081        83.2690 
 515   0.0000       3.061735        83.3140 
 516   0.0000       3.072235        83.5998 
 517   0.0000       3.083876        83.9165 
 518   0.0000       3.091972        84.1368 
 519   0.0000       3.099610        84.3447 
 520   0.0000       3.107543        84.5605 
 521   0.0000       3.150250        85.7227 
 522   0.0000       3.156941        85.9047 
 523   0.0000       3.163729        86.0895 
 524   0.0000       3.165456        86.1364 
 525   0.0000       3.174996        86.3960 
 526   0.0000       3.179497        86.5185 
 527   0.0000       3.201476        87.1166 
 528   0.0000       3.201627        87.1207 
 529   0.0000       3.220834        87.6434 
 530   0.0000       3.221246        87.6546 
 531   0.0000       3.221341        87.6571 
 532   0.0000       3.227216        87.8170 
 533   0.0000       3.230105        87.8956 
 534   0.0000       3.233385        87.9849 
 535   0.0000       3.235593        88.0450 
 536   0.0000       3.235844        88.0518 
 537   0.0000       3.249110        88.4128 
 538   0.0000       3.252394        88.5021 
 539   0.0000       3.270994        89.0083 
 540   0.0000       3.272478        89.0487 
 541   0.0000       3.276000        89.1445 
 542   0.0000       3.311541        90.1116 
 543   0.0000       3.312057        90.1256 
 544   0.0000       3.318247        90.2941 
 545   0.0000       3.329986        90.6135 
 546   0.0000       3.334373        90.7329 
 547   0.0000       3.337233        90.8107 
 548   0.0000       3.353545        91.2546 
 549   0.0000       3.380525        91.9888 
 550   0.0000       3.381037        92.0027 
 551   0.0000       3.388918        92.2171 
 552   0.0000       3.401433        92.5577 
 553   0.0000       3.421001        93.0902 
 554   0.0000       3.423098        93.1472 
 555   0.0000       3.427993        93.2804 
 556   0.0000       3.429923        93.3329 
 557   0.0000       3.436059        93.4999 
 558   0.0000       3.442065        93.6634 
 559   0.0000       3.442894        93.6859 
 560   0.0000       3.444573        93.7316 
 561   0.0000       3.453830        93.9835 
 562   0.0000       3.460343        94.1607 
 563   0.0000       3.490165        94.9722 
 564   0.0000       3.501913        95.2919 
 565   0.0000       3.508641        95.4750 
 566   0.0000       3.512417        95.5777 
 567   0.0000       3.518613        95.7463 
 568   0.0000       3.545015        96.4648 
 569   0.0000       3.548680        96.5645 
 570   0.0000       3.565245        97.0152 
 571   0.0000       3.573059        97.2279 
 572   0.0000       3.582585        97.4871 
 573   0.0000       3.582792        97.4927 
 574   0.0000       3.591122        97.7194 
 575   0.0000       3.622538        98.5743 
 576   0.0000       3.628840        98.7458 
 577   0.0000       3.650335        99.3307 
 578   0.0000       3.655245        99.4643 
 579   0.0000       3.657002        99.5121 
 580   0.0000       3.663452        99.6876 
 581   0.0000       3.679379       100.1210 
 582   0.0000       3.687736       100.3484 
 583   0.0000       3.701188       100.7145 
 584   0.0000       3.709460       100.9396 
 585   0.0000       3.724830       101.3578 
 586   0.0000       3.725898       101.3868 
 587   0.0000       3.740184       101.7756 
 588   0.0000       3.740541       101.7853 
 589   0.0000       3.757161       102.2376 
 590   0.0000       3.766255       102.4850 
 591   0.0000       3.772225       102.6475 
 592   0.0000       3.787492       103.0629 
 593   0.0000       3.788618       103.0935 
 594   0.0000       3.795468       103.2799 
 595   0.0000       3.810870       103.6990 
 596   0.0000       3.816815       103.8608 
 597   0.0000       3.825084       104.0858 
 598   0.0000       3.834492       104.3418 
 599   0.0000       3.856211       104.9328 
 600   0.0000       3.865197       105.1774 
 601   0.0000       3.881253       105.6143 
 602   0.0000       3.955992       107.6480 
 603   0.0000       3.963109       107.8417 
 604   0.0000       3.974340       108.1473 
 605   0.0000       3.976316       108.2011 
 606   0.0000       3.993389       108.6656 
 607   0.0000       3.999809       108.8403 
 608   0.0000       4.007387       109.0465 
 609   0.0000       4.028564       109.6228 
 610   0.0000       4.034502       109.7844 
 611   0.0000       4.066739       110.6616 
 612   0.0000       4.085993       111.1855 
 613   0.0000       4.113232       111.9267 
 614   0.0000       4.116664       112.0201 
 615   0.0000       4.117897       112.0537 
 616   0.0000       4.157661       113.1357 
 617   0.0000       4.176029       113.6355 
 618   0.0000       4.178928       113.7144 
 619   0.0000       4.192193       114.0754 
 620   0.0000       4.211238       114.5936 
 621   0.0000       4.214133       114.6724 
 622   0.0000       4.261566       115.9631 
 623   0.0000       4.285911       116.6256 
 624   0.0000       4.291863       116.7875 
 625   0.0000       4.294480       116.8588 
 626   0.0000       4.324679       117.6805 
 627   0.0000       4.326922       117.7415 
 628   0.0000       4.357033       118.5609 
 629   0.0000       4.357383       118.5704 
 630   0.0000       4.366421       118.8164 
 631   0.0000       4.382298       119.2484 
 632   0.0000       4.397559       119.6637 
 633   0.0000       4.401534       119.7718 
 634   0.0000       4.415995       120.1653 
 635   0.0000       4.426213       120.4434 
 636   0.0000       4.441509       120.8596 
 637   0.0000       4.456317       121.2626 
 638   0.0000       4.471846       121.6851 
 639   0.0000       4.472716       121.7088 
 640   0.0000       4.493883       122.2848 
 641   0.0000       4.495273       122.3226 
 642   0.0000       4.500322       122.4600 
 643   0.0000       4.512363       122.7876 
 644   0.0000       4.520763       123.0162 
 645   0.0000       4.523479       123.0901 
 646   0.0000       4.584028       124.7378 
 647   0.0000       4.599831       125.1678 
 648   0.0000       4.654220       126.6478 
 649   0.0000       4.683901       127.4554 
 650   0.0000       4.693008       127.7033 
 651   0.0000       4.714322       128.2832 
 652   0.0000       4.760932       129.5516 
 653   0.0000       4.780018       130.0709 
 654   0.0000       4.805054       130.7522 
 655   0.0000       4.805447       130.7629 
 656   0.0000       4.805688       130.7694 
 657   0.0000       4.817819       131.0995 
 658   0.0000       4.834319       131.5485 
 659   0.0000       4.852080       132.0318 
 660   0.0000       4.883141       132.8770 
 661   0.0000       4.885256       132.9346 
 662   0.0000       4.895760       133.2204 
 663   0.0000       4.934641       134.2784 
 664   0.0000       4.963843       135.0730 
 665   0.0000       4.968604       135.2026 
 666   0.0000       4.969614       135.2301 
 667   0.0000       4.995128       135.9243 
 668   0.0000       5.023375       136.6930 
 669   0.0000       5.024257       136.7170 
 670   0.0000       5.069976       137.9611 
 671   0.0000       5.095466       138.6547 
 672   0.0000       5.109610       139.0396 
 673   0.0000       5.111443       139.0894 
 674   0.0000       5.162929       140.4904 
 675   0.0000       5.181306       140.9905 
 676   0.0000       5.183877       141.0605 
 677   0.0000       5.194840       141.3588 
 678   0.0000       5.213874       141.8767 
 679   0.0000       5.256913       143.0479 
 680   0.0000       5.277964       143.6207 
 681   0.0000       5.317076       144.6850 
 682   0.0000       5.324050       144.8748 
 683   0.0000       5.362004       145.9076 
 684   0.0000       5.381372       146.4346 
 685   0.0000       5.424824       147.6170 
 686   0.0000       5.441501       148.0708 
 687   0.0000       5.442375       148.0945 
 688   0.0000       5.477610       149.0533 
 689   0.0000       5.532585       150.5493 
 690   0.0000       5.573778       151.6702 
 691   0.0000       5.576447       151.7428 
 692   0.0000       5.583241       151.9277 
 693   0.0000       5.680855       154.5839 
 694   0.0000       5.820148       158.3743 
 695   0.0000       5.836455       158.8180 
 696   0.0000       5.874611       159.8563 
 697   0.0000       5.896416       160.4496 
 698   0.0000       5.903937       160.6543 
 699   0.0000       6.060565       164.9164 
 700   0.0000       6.150730       167.3699 
 701   0.0000       6.458073       175.7331 
 702   0.0000       8.890667       241.9273 
 703   0.0000       8.892519       241.9778 
 704   0.0000       8.952860       243.6197 
 705   0.0000       8.954283       243.6584 
 706   0.0000       8.965984       243.9768 
 707   0.0000       8.967642       244.0219 
 708   0.0000       9.434497       256.7257 
 709   0.0000       9.443029       256.9579 
 710   0.0000       9.476793       257.8766 
 711   0.0000       9.476850       257.8782 
 712   0.0000       9.504235       258.6234 
 713   0.0000       9.516894       258.9678 
 714   0.0000       9.527446       259.2550 
 715   0.0000       9.558268       260.0937 
 716   0.0000       9.562878       260.2191 
 717   0.0000       9.580146       260.6890 
 718   0.0000       9.580952       260.7110 
 719   0.0000       9.605088       261.3677 
 720   0.0000      19.597961       533.2876 
 721   0.0000      19.635421       534.3070 
 722   0.0000      20.050869       545.6119 
 723   0.0000      20.103958       547.0565 
 724   0.0000      20.156010       548.4729 
 725   0.0000      20.214832       550.0735 
[...]
      f-1     :     0.003249
      f+2     :     0.002093
      f-2     :     0.008103
      f+3     :     0.016774
      f-3     :     0.014086
  3 H s       :     0.787787  s :     0.787787
      pz      :     0.014403  p :     0.064786
      px      :     0.031867
      py      :     0.018516
  4 S s       :     5.186989  s :     5.186989
      pz      :     3.534611  p :     9.708093
      px      :     2.917075
      py      :     3.256407
      dz2     :     0.039963  d :     0.328706
      dxz     :     0.053755
      dyz     :     0.032477
      dx2y2   :     0.088599
      dxy     :     0.113911
      f0      :     0.004202  f :     0.052806
      f+1     :     0.004213
      f-1     :     0.003285
      f+2     :     0.002663
      f-2     :     0.007540
      f+3     :     0.016550
      f-3     :     0.014353
  5 H s       :     0.787926  s :     0.787926
      pz      :     0.014399  p :     0.064826
      px      :     0.030997
      py      :     0.019430
  6 C s       :     2.842303  s :     2.842303
      pz      :     0.926244  p :     3.046763
      px      :     1.072756
      py      :     1.047763
      dz2     :     0.037974  d :     0.571218
      dxz     :     0.120591
      dyz     :     0.082764
      dx2y2   :     0.139581
      dxy     :     0.190309
      f0      :     0.003958  f :     0.051700
      f+1     :     0.004358
      f-1     :     0.003949
      f+2     :     0.008057
      f-2     :     0.006354
      f+3     :     0.009977
      f-3     :     0.015046
  7 C s       :     2.694467  s :     2.694467
      pz      :     0.964483  p :     2.941435
      px      :     1.011686
      py      :     0.965265
      dz2     :     0.033269  d :     0.497621
      dxz     :     0.081413
      dyz     :     0.061321
      dx2y2   :     0.146690
      dxy     :     0.174929
      f0      :     0.004730  f :     0.055708
      f+1     :     0.005095
      f-1     :     0.004159
      f+2     :     0.006647
      f-2     :     0.005820
      f+3     :     0.009903
      f-3     :     0.019353
  8 C s       :     2.710513  s :     2.710513
      pz      :     0.843255  p :     2.798968
      px      :     0.985091
      py      :     0.970622
      dz2     :     0.044291  d :     0.646766
      dxz     :     0.069355
      dyz     :     0.119425
      dx2y2   :     0.207454
      dxy     :     0.206241
      f0      :     0.005395  f :     0.084229
      f+1     :     0.004583
      f-1     :     0.006556
      f+2     :     0.009819
      f-2     :     0.010009
      f+3     :     0.015155
      f-3     :     0.032712
  9 C s       :     2.710511  s :     2.710511
      pz      :     0.843411  p :     2.799124
      px      :     0.985822
      py      :     0.969892
      dz2     :     0.044276  d :     0.646532
      dxz     :     0.069405
      dyz     :     0.119306
      dx2y2   :     0.204782
      dxy     :     0.208763
      f0      :     0.005396  f :     0.084205
      f+1     :     0.004533
      f-1     :     0.006605
      f+2     :     0.010311
      f-2     :     0.009510
      f+3     :     0.016562
      f-3     :     0.031288
 10 N s       :     3.156119  s :     3.156119
      pz      :     1.130738  p :     3.747595
      px      :     1.405690
      py      :     1.211168
      dz2     :     0.020013  d :     0.221796
      dxz     :     0.017427
      dyz     :     0.052486
      dx2y2   :     0.043933
      dxy     :     0.087937
      f0      :     0.001221  f :     0.018837
      f+1     :     0.000849
      f-1     :     0.001895
      f+2     :     0.000865
      f-2     :     0.003473
      f+3     :     0.003855
      f-3     :     0.006679
 11 S s       :     5.235402  s :     5.235402
      pz      :     3.518128  p :     9.541445
      px      :     2.779186
      py      :     3.244132
      dz2     :     0.060298  d :     0.514033
      dxz     :     0.102087
      dyz     :     0.047444
      dx2y2   :     0.147959
      dxy     :     0.156245
      f0      :     0.006703  f :     0.109017
      f+1     :     0.007963
      f-1     :     0.005619
      f+2     :     0.000196
      f-2     :     0.020742
      f+3     :     0.033328
      f-3     :     0.034467
 12 N s       :     3.156092  s :     3.156092
      pz      :     1.130672  p :     3.747851
      px      :     1.399539
      py      :     1.217640
      dz2     :     0.020018  d :     0.221873
      dxz     :     0.018178
      dyz     :     0.051772
      dx2y2   :     0.044081
      dxy     :     0.087824
      f0      :     0.001222  f :     0.018844
      f+1     :     0.000862
      f-1     :     0.001881
      f+2     :     0.001072
      f-2     :     0.003268
      f+3     :     0.003969
      f-3     :     0.006570
 13 C s       :     2.710509  s :     2.710509
      pz      :     0.843390  p :     2.799096
      px      :     0.985810
      py      :     0.969896
      dz2     :     0.044276  d :     0.646525
      dxz     :     0.069399
      dyz     :     0.119310
      dx2y2   :     0.204784
      dxy     :     0.208756
      f0      :     0.005396  f :     0.084205
      f+1     :     0.004534
      f-1     :     0.006605
      f+2     :     0.010312
      f-2     :     0.009509
      f+3     :     0.016563
      f-3     :     0.031286
 14 C s       :     2.710510  s :     2.710510
      pz      :     0.843234  p :     2.798940
      px      :     0.985078
      py      :     0.970627
      dz2     :     0.044290  d :     0.646761
      dxz     :     0.069349
      dyz     :     0.119430
      dx2y2   :     0.207456
      dxy     :     0.206235
      f0      :     0.005395  f :     0.084229
      f+1     :     0.004583
      f-1     :     0.006556
      f+2     :     0.009820
      f-2     :     0.010008
      f+3     :     0.015156
      f-3     :     0.032711
 15 C s       :     2.694461  s :     2.694461
      pz      :     0.964469  p :     2.941401
      px      :     1.011682
      py      :     0.965249
      dz2     :     0.033270  d :     0.497606
      dxz     :     0.081403
      dyz     :     0.061314
      dx2y2   :     0.146688
      dxy     :     0.174931
      f0      :     0.004731  f :     0.055709
      f+1     :     0.005096
      f-1     :     0.004159
      f+2     :     0.006647
      f-2     :     0.005820
      f+3     :     0.009904
      f-3     :     0.019353
 16 N s       :     3.156091  s :     3.156091
      pz      :     1.130673  p :     3.747859
      px      :     1.399546
      py      :     1.217640
      dz2     :     0.020018  d :     0.221876
      dxz     :     0.018178
      dyz     :     0.051775
      dx2y2   :     0.044082
      dxy     :     0.087823
      f0      :     0.001222  f :     0.018844
      f+1     :     0.000862
      f-1     :     0.001881
      f+2     :     0.001072
      f-2     :     0.003269
      f+3     :     0.003969
      f-3     :     0.006570
 17 N s       :     3.156120  s :     3.156120
      pz      :     1.130736  p :     3.747583
      px      :     1.405681
      py      :     1.211167
      dz2     :     0.020013  d :     0.221794
      dxz     :     0.017428
      dyz     :     0.052482
      dx2y2   :     0.043932
      dxy     :     0.087939
      f0      :     0.001221  f :     0.018837
      f+1     :     0.000849
      f-1     :     0.001895
      f+2     :     0.000865
      f-2     :     0.003473
      f+3     :     0.003855
      f-3     :     0.006679
 18 S s       :     5.235403  s :     5.235403
      pz      :     3.518130  p :     9.541447
      px      :     2.779185
      py      :     3.244132
      dz2     :     0.060297  d :     0.514032
      dxz     :     0.102086
      dyz     :     0.047444
      dx2y2   :     0.147959
      dxy     :     0.156245
      f0      :     0.006703  f :     0.109017
      f+1     :     0.007963
      f-1     :     0.005619
      f+2     :     0.000196
      f-2     :     0.020742
      f+3     :     0.033328
      f-3     :     0.034467
 19 C s       :     2.842296  s :     2.842296
      pz      :     0.926211  p :     3.046719
      px      :     1.072755
      py      :     1.047752
      dz2     :     0.037975  d :     0.571213
      dxz     :     0.120587
      dyz     :     0.082760
      dx2y2   :     0.139580
      dxy     :     0.190312
      f0      :     0.003958  f :     0.051701
      f+1     :     0.004358
      f-1     :     0.003950
      f+2     :     0.008057
      f-2     :     0.006354
      f+3     :     0.009978
      f-3     :     0.015047
 20 S s       :     5.186982  s :     5.186982
      pz      :     3.534601  p :     9.708089
      px      :     2.917066
      py      :     3.256422
      dz2     :     0.039962  d :     0.328701
      dxz     :     0.053753
      dyz     :     0.032477
      dx2y2   :     0.088600
      dxy     :     0.113910
      f0      :     0.004202  f :     0.052807
      f+1     :     0.004213
      f-1     :     0.003285
      f+2     :     0.002663
      f-2     :     0.007540
      f+3     :     0.016550
      f-3     :     0.014353
 21 S s       :     5.187247  s :     5.187247
      pz      :     3.534737  p :     9.708038
      px      :     2.909813
      py      :     3.263488
      dz2     :     0.039963  d :     0.328589
      dxz     :     0.053787
      dyz     :     0.032395
      dx2y2   :     0.083451
      dxy     :     0.118993
      f0      :     0.004198  f :     0.052752
      f+1     :     0.004250
      f-1     :     0.003249
      f+2     :     0.002094
      f-2     :     0.008102
      f+3     :     0.016773
      f-3     :     0.014086
 22 C s       :     2.856010  s :     2.856010
      pz      :     0.971913  p :     3.115733
      px      :     1.014258
      py      :     1.129563
      dz2     :     0.029372  d :     0.419841
      dxz     :     0.048302
      dyz     :     0.069512
      dx2y2   :     0.091397
      dxy     :     0.181258
      f0      :     0.003493  f :     0.043635
      f+1     :     0.003428
      f-1     :     0.004654
      f+2     :     0.007619
      f-2     :     0.002137
      f+3     :     0.013815
      f-3     :     0.008488
 23 C s       :     2.856069  s :     2.856069
      pz      :     0.972018  p :     3.115803
      px      :     1.013692
      py      :     1.130093
      dz2     :     0.029376  d :     0.419872
      dxz     :     0.045573
      dyz     :     0.072222
      dx2y2   :     0.090401
      dxy     :     0.182300
      f0      :     0.003491  f :     0.043625
      f+1     :     0.003408
      f-1     :     0.004674
      f+2     :     0.007234
      f-2     :     0.002518
      f+3     :     0.013888
      f-3     :     0.008411
 24 H s       :     0.787790  s :     0.787790
      pz      :     0.014403  p :     0.064786
      px      :     0.031866
      py      :     0.018516
 25 H s       :     0.787931  s :     0.787931
      pz      :     0.014399  p :     0.064825
      px      :     0.030997
      py      :     0.019429


                      *****************************
                      * MAYER POPULATION ANALYSIS *
                      *****************************

  NA   - Mulliken gross atomic population
  ZA   - Total nuclear charge
  QA   - Mulliken gross atomic charge
  VA   - Mayer's total valence
  BVA  - Mayer's bonded valence
  FA   - Mayer's free valence

  ATOM       NA         ZA         QA         VA         BVA        FA
  0 C      6.1983     6.0000    -0.1983     4.0201     4.0201    -0.0000
  1 C      6.1952     6.0000    -0.1952     4.0208     4.0208    -0.0000
  2 S     15.9028    16.0000     0.0972     2.6831     2.6831    -0.0000
  3 H      0.8028     1.0000     0.1972     0.9616     0.9616    -0.0000
  4 S     15.9045    16.0000     0.0955     2.6832     2.6832    -0.0000
  5 H      0.8039     1.0000     0.1961     0.9621     0.9621    -0.0000
  6 C      5.9817     6.0000     0.0183     4.0818     4.0818    -0.0000
  7 C      5.9981     6.0000     0.0019     3.4120     3.4120    -0.0000
  8 C      5.9181     6.0000     0.0819     3.9085     3.9085    -0.0000
  9 C      5.9176     6.0000     0.0824     3.9054     3.9054    -0.0000
 10 N      7.3214     7.0000    -0.3214     2.9654     2.9654    -0.0000
 11 S     15.7321    16.0000     0.2679     2.8216     2.8216    -0.0000
 12 N      7.3235     7.0000    -0.3235     2.9657     2.9657    -0.0000
 13 C      5.9176     6.0000     0.0824     3.9052     3.9052    -0.0000
 14 C      5.9181     6.0000     0.0819     3.9082     3.9082    -0.0000
 15 C      5.9980     6.0000     0.0020     3.4118     3.4118    -0.0000
 16 N      7.3235     7.0000    -0.3235     2.9657     2.9657    -0.0000
 17 N      7.3214     7.0000    -0.3214     2.9654     2.9654    -0.0000
 18 S     15.7321    16.0000     0.2679     2.8216     2.8216    -0.0000
 19 C      5.9818     6.0000     0.0182     4.0819     4.0819    -0.0000
 20 S     15.9045    16.0000     0.0955     2.6832     2.6832    -0.0000
 21 S     15.9028    16.0000     0.0972     2.6832     2.6832    -0.0000
 22 C      6.1952     6.0000    -0.1952     4.0208     4.0208    -0.0000
 23 C      6.1984     6.0000    -0.1984     4.0201     4.0201    -0.0000
 24 H      0.8028     1.0000     0.1972     0.9617     0.9617    -0.0000
 25 H      0.8039     1.0000     0.1961     0.9621     0.9621    -0.0000

  Mayer bond orders larger than 0.100000
B(  0-C ,  1-C ) :   1.8452 B(  0-C ,  2-S ) :   1.1581 B(  0-C ,  3-H ) :   0.9266 
B(  1-C ,  4-S ) :   1.1586 B(  1-C ,  5-H ) :   0.9266 B(  2-S ,  6-C ) :   1.3202 
B(  4-S ,  6-C ) :   1.3195 B(  6-C ,  7-C ) :   1.4278 B(  7-C ,  8-C ) :   1.0488 
B(  7-C ,  9-C ) :   1.0483 B(  8-C , 10-N ) :   1.5672 B(  8-C , 11-S ) :   0.1289 
B(  8-C , 13-C ) :   1.1987 B(  9-C , 14-C ) :   1.1987 B(  9-C , 16-N ) :   1.5666 
B(  9-C , 18-S ) :   0.1274 B( 10-N , 11-S ) :   1.2157 B( 11-S , 12-N ) :   1.2160 
B( 11-S , 13-C ) :   0.1274 B( 12-N , 13-C ) :   1.5666 B( 13-C , 15-C ) :   1.0481 
B( 14-C , 15-C ) :   1.0487 B( 14-C , 17-N ) :   1.5672 B( 14-C , 18-S ) :   0.1288 
B( 15-C , 19-C ) :   1.4278 B( 16-N , 18-S ) :   1.2160 B( 17-N , 18-S ) :   1.2157 
B( 19-C , 20-S ) :   1.3196 B( 19-C , 21-S ) :   1.3202 B( 20-S , 22-C ) :   1.1586 
B( 21-S , 23-C ) :   1.1582 B( 22-C , 23-C ) :   1.8452 B( 22-C , 25-H ) :   0.9266 
B( 23-C , 24-H ) :   0.9266 

-------
TIMINGS
-------

Total SCF time: 0 days 0 hours 23 min 51 sec 

Total time                  ....    1431.896 sec
Sum of individual times     ....    1430.156 sec  ( 99.9%)

Fock matrix formation       ....    1424.476 sec  ( 99.5%)
  XC integration            ....       8.299 sec  (  0.6% of F)
    Basis function eval.    ....       1.555 sec  ( 18.7% of XC)
    Density eval.           ....       2.582 sec  ( 31.1% of XC)
    XC-Functional eval.     ....       0.464 sec  (  5.6% of XC)
    XC-Potential eval.      ....       3.397 sec  ( 40.9% of XC)
Diagonalization             ....       0.405 sec  (  0.0%)
Density matrix formation    ....       0.066 sec  (  0.0%)
Population analysis         ....       0.279 sec  (  0.0%)
Initial guess               ....       0.421 sec  (  0.0%)
Orbital Transformation      ....       0.000 sec  (  0.0%)
Orbital Orthonormalization  ....       0.376 sec  (  0.0%)
DIIS solution               ....       0.115 sec  (  0.0%)
SOSCF solution              ....       1.516 sec  (  0.1%)
Grid generation             ....       2.877 sec  (  0.2%)


-------------------------------------------------------------------------------
                          DFT DISPERSION CORRECTION                            
                                                                               
                              DFTD3 V3.1  Rev 1                                
                              USING zero damping                               
-------------------------------------------------------------------------------
The omegaB97X-D3 functional is recognized. Fit by Chai et al.
Active option DFTDOPT                   ...         3   

molecular C6(AA) [au] = 22214.253477 


            DFT-D V3
 parameters
 s6 scaling factor         :     1.0000 
 rs6 scaling factor        :     1.2810 
 s8 scaling factor         :     1.0000 
 rs8 scaling factor        :     1.0940 
 Damping factor alpha6     :    14.0000 
 Damping factor alpha8     :    16.0000 
 ad hoc parameters k1-k3   :    16.0000     1.3333    -4.0000 

 Edisp/kcal,au: -8.502645771285  -0.013549827079 
 E6   /kcal   :  -3.809688235 
 E8   /kcal   :  -4.692957536 
 % E8         :  55.194085019 

-------------------------   ----------------
Dispersion correction           -0.013549827
-------------------------   ----------------


-------------------------   --------------------
FINAL SINGLE POINT ENERGY     -3067.910587518820
-------------------------   --------------------

                                *** OPTIMIZATION RUN DONE ***

                            ***************************************
                            *     ORCA property calculations      *
                            ***************************************

                                    ---------------------
                                    Active property flags
                                    ---------------------
   (+) Dipole Moment


------------------------------------------------------------------------------
                       ORCA ELECTRIC PROPERTIES CALCULATION
------------------------------------------------------------------------------

Dipole Moment Calculation                       ... on
Quadrupole Moment Calculation                   ... off
Polarizability Calculation                      ... off
GBWName                                         ... BTQBT.gbw
Electron density file                           ... BTQBT.scfp
The origin for moment calculation is the CENTER OF MASS  = (-3.582892, -1.403524 -0.007133)

-------------
DIPOLE MOMENT
-------------
                                X             Y             Z
Electronic contribution:      0.00043       0.00003       0.00304
Nuclear contribution   :      0.00000      -0.00008      -0.00355
                        -----------------------------------------
Total Dipole Moment    :      0.00043      -0.00005      -0.00051
                        -----------------------------------------
Magnitude (a.u.)       :      0.00067
Magnitude (Debye)      :      0.00170



--------------------
Rotational spectrum 
--------------------
 
Rotational constants in cm-1:     0.011364     0.004433     0.003189 
Rotational constants in MHz :   340.687419   132.910603    95.610564 

 Dipole components along the rotational axes: 
x,y,z [a.u.] :     0.000425    -0.000059    -0.000511 
x,y,z [Debye]:     0.001080    -0.000151    -0.001299 

 
--------------------------------------------------------------------------
[[58125,1],1]: A high-performance Open MPI point-to-point messaging module
was unable to find any relevant network interfaces:

Module: OpenFabrics (openib)
  Host: compute-0-9

Another transport will be used instead, although this may result in
lower performance.

NOTE: You can disable this warning by setting the MCA parameter
btl_base_warn_component_unused to 0.
--------------------------------------------------------------------------
[compute-0-9.local:17954] 3 more processes have sent help message help-mpi-btl-base.txt / btl:no-nics
[compute-0-9.local:17954] Set MCA parameter "orte_base_help_aggregate" to 0 to see all help / error messages

Timings for individual modules:

Sum of individual times         ...    50074.532 sec (= 834.576 min)
GTO integral calculation        ...       23.506 sec (=   0.392 min)   0.0 %
SCF iterations                  ...    28882.722 sec (= 481.379 min)  57.7 %
SCF Gradient evaluation         ...    21164.721 sec (= 352.745 min)  42.3 %
Geometry relaxation             ...        3.583 sec (=   0.060 min)   0.0 %
                             ****ORCA TERMINATED NORMALLY****
TOTAL RUN TIME: 0 days 13 hours 54 minutes 39 seconds 103 msec
