Warning: no access to tty (Bad file descriptor).
Thus no job control in this shell.

                                 *****************
                                 * O   R   C   A *
                                 *****************

           --- An Ab Initio, DFT and Semiempirical electronic structure package ---

                  #######################################################
                  #                        -***-                        #
                  #          Department of theory and spectroscopy      #
                  #               Directorship: Frank Neese             #
                  #        Max Planck Institute fuer Kohlenforschung    #
                  #                Kaiser Wilhelm Platz 1               #
                  #                 D-45470 Muelheim/Ruhr               #
                  #                      Germany                        #
                  #                                                     #
                  #                  All rights reserved                #
                  #                        -***-                        #
                  #######################################################


                         Program Version 4.2.1 -  RELEASE  -


 With contributions from (in alphabetic order):
   Daniel Aravena         : Magnetic Suceptibility
   Michael Atanasov       : Ab Initio Ligand Field Theory (pilot matlab implementation)
   Alexander A. Auer      : GIAO ZORA, VPT2
   Ute Becker             : Parallelization
   Giovanni Bistoni       : ED, misc. LED, open-shell LED, HFLD
   Martin Brehm           : Molecular dynamics
   Dmytro Bykov           : SCF Hessian
   Vijay G. Chilkuri      : MRCI spin determinant printing, contributions to CSF-ICE
   Dipayan Datta          : RHF DLPNO-CCSD density
   Achintya Kumar Dutta   : EOM-CC, STEOM-CC
   Dmitry Ganyushin       : Spin-Orbit,Spin-Spin,Magnetic field MRCI
   Miquel Garcia          : C-PCM Hessian, Gaussian charge scheme
   Yang Guo               : DLPNO-NEVPT2, CIM, IAO-localization
   Andreas Hansen         : Spin unrestricted coupled pair/coupled cluster methods
   Benjamin Helmich-Paris : CASSCF linear response (MC-RPA)
   Lee Huntington         : MR-EOM, pCC
   Robert Izsak           : Overlap fitted RIJCOSX, COSX-SCS-MP3, EOM
   Christian Kollmar      : KDIIS, OOCD, Brueckner-CCSD(T), CCSD density
   Simone Kossmann        : Meta GGA functionals, TD-DFT gradient, OOMP2, MP2 Hessian
   Martin Krupicka        : AUTO-CI
   Lucas Lang             : DCDCAS
   Dagmar Lenk            : GEPOL surface, SMD
   Dimitrios Liakos       : Extrapolation schemes; Compound Job, initial MDCI parallelization
   Dimitrios Manganas     : Further ROCIS development; embedding schemes
   Dimitrios Pantazis     : SARC Basis sets
   Taras Petrenko         : DFT Hessian,TD-DFT gradient, ASA, ECA, R-Raman, ABS, FL, XAS/XES, NRVS
   Peter Pinski           : DLPNO-MP2, DLPNO-MP2 Gradient
   Christoph Reimann      : Effective Core Potentials
   Marius Retegan         : Local ZFS, SOC
   Christoph Riplinger    : Optimizer, TS searches, QM/MM, DLPNO-CCSD(T), (RO)-DLPNO pert. Triples
   Tobias Risthaus        : Range-separated hybrids, TD-DFT gradient, RPA, STAB
   Michael Roemelt        : Original ROCIS implementation
   Masaaki Saitow         : Open-shell DLPNO-CCSD energy and density
   Barbara Sandhoefer     : DKH picture change effects
   Avijit Sen             : IP-ROCIS
   Kantharuban Sivalingam : CASSCF convergence, NEVPT2, FIC-MRCI
   Bernardo de Souza      : ESD, SOC TD-DFT
   Georgi Stoychev        : AutoAux, RI-MP2 NMR
   Willem Van den Heuvel  : Paramagnetic NMR
   Boris Wezisla          : Elementary symmetry handling
   Frank Wennmohs         : Technical directorship


 We gratefully acknowledge several colleagues who have allowed us to
 interface, adapt or use parts of their codes:
   Stefan Grimme, W. Hujo, H. Kruse,             : VdW corrections, initial TS optimization,
                  C. Bannwarth                     DFT functionals, gCP, sTDA/sTD-DF
   Ed Valeev, F. Pavosevic, A. Kumar             : LibInt (2-el integral package), F12 methods
   Garnet Chan, S. Sharma, J. Yang, R. Olivares  : DMRG
   Ulf Ekstrom                                   : XCFun DFT Library
   Mihaly Kallay                                 : mrcc  (arbitrary order and MRCC methods)
   Andreas Klamt, Michael Diedenhofen            : otool_cosmo (COSMO solvation model)
   Jiri Pittner, Ondrej Demel                    : Mk-CCSD
   Frank Weinhold                                : gennbo (NPA and NBO analysis)
   Christopher J. Cramer and Donald G. Truhlar   : smd solvation model
   Lars Goerigk                                  : TD-DFT with DH, B97 family of functionals
   V. Asgeirsson, H. Jonsson                     : NEB implementation
   FAccTs GmbH                                   : IRC, NEB, NEB-TS, Multilevel, MM, QM/MM, CI optimization
   S Lehtola, MJT Oliveira, MAL Marques          : LibXC Library


 Your calculation uses the libint2 library for the computation of 2-el integrals
 For citations please refer to: http://libint.valeyev.net

 Your ORCA version has been built with support for libXC version: 4.2.3
 For citations please refer to: https://tddft.org/programs/libxc/

 This ORCA versions uses:
   CBLAS   interface :  Fast vector & matrix operations
   LAPACKE interface :  Fast linear algebra routines
   SCALAPACK package :  Parallel linear algebra routines


[file orca_tools/Tool-Scanner/qcscan1.cpp, line 102]: 
	 Unknown identifier in CPCM block line    7  : 
	 Last token : Â
[file orca_tools/Tool-Scanner/qcscan1.cpp, line 102]: 
	 Unknown identifier in CPCM block line    7  : 
	 Last token : Â
Warning: no access to tty (Bad file descriptor).
Thus no job control in this shell.

                                 *****************
                                 * O   R   C   A *
                                 *****************

           --- An Ab Initio, DFT and Semiempirical electronic structure package ---

                  #######################################################
                  #                        -***-                        #
                  #          Department of theory and spectroscopy      #
                  #               Directorship: Frank Neese             #
                  #        Max Planck Institute fuer Kohlenforschung    #
                  #                Kaiser Wilhelm Platz 1               #
                  #                 D-45470 Muelheim/Ruhr               #
                  #                      Germany                        #
                  #                                                     #
                  #                  All rights reserved                #
                  #                        -***-                        #
                  #######################################################


                         Program Version 4.2.1 -  RELEASE  -


 With contributions from (in alphabetic order):
   Daniel Aravena         : Magnetic Suceptibility
   Michael Atanasov       : Ab Initio Ligand Field Theory (pilot matlab implementation)
   Alexander A. Auer      : GIAO ZORA, VPT2
   Ute Becker             : Parallelization
   Giovanni Bistoni       : ED, misc. LED, open-shell LED, HFLD
   Martin Brehm           : Molecular dynamics
   Dmytro Bykov           : SCF Hessian
   Vijay G. Chilkuri      : MRCI spin determinant printing, contributions to CSF-ICE
   Dipayan Datta          : RHF DLPNO-CCSD density
   Achintya Kumar Dutta   : EOM-CC, STEOM-CC
   Dmitry Ganyushin       : Spin-Orbit,Spin-Spin,Magnetic field MRCI
   Miquel Garcia          : C-PCM Hessian, Gaussian charge scheme
   Yang Guo               : DLPNO-NEVPT2, CIM, IAO-localization
   Andreas Hansen         : Spin unrestricted coupled pair/coupled cluster methods
   Benjamin Helmich-Paris : CASSCF linear response (MC-RPA)
   Lee Huntington         : MR-EOM, pCC
   Robert Izsak           : Overlap fitted RIJCOSX, COSX-SCS-MP3, EOM
   Christian Kollmar      : KDIIS, OOCD, Brueckner-CCSD(T), CCSD density
   Simone Kossmann        : Meta GGA functionals, TD-DFT gradient, OOMP2, MP2 Hessian
   Martin Krupicka        : AUTO-CI
   Lucas Lang             : DCDCAS
   Dagmar Lenk            : GEPOL surface, SMD
   Dimitrios Liakos       : Extrapolation schemes; Compound Job, initial MDCI parallelization
   Dimitrios Manganas     : Further ROCIS development; embedding schemes
   Dimitrios Pantazis     : SARC Basis sets
   Taras Petrenko         : DFT Hessian,TD-DFT gradient, ASA, ECA, R-Raman, ABS, FL, XAS/XES, NRVS
   Peter Pinski           : DLPNO-MP2, DLPNO-MP2 Gradient
   Christoph Reimann      : Effective Core Potentials
   Marius Retegan         : Local ZFS, SOC
   Christoph Riplinger    : Optimizer, TS searches, QM/MM, DLPNO-CCSD(T), (RO)-DLPNO pert. Triples
   Tobias Risthaus        : Range-separated hybrids, TD-DFT gradient, RPA, STAB
   Michael Roemelt        : Original ROCIS implementation
   Masaaki Saitow         : Open-shell DLPNO-CCSD energy and density
   Barbara Sandhoefer     : DKH picture change effects
   Avijit Sen             : IP-ROCIS
   Kantharuban Sivalingam : CASSCF convergence, NEVPT2, FIC-MRCI
   Bernardo de Souza      : ESD, SOC TD-DFT
   Georgi Stoychev        : AutoAux, RI-MP2 NMR
   Willem Van den Heuvel  : Paramagnetic NMR
   Boris Wezisla          : Elementary symmetry handling
   Frank Wennmohs         : Technical directorship


 We gratefully acknowledge several colleagues who have allowed us to
 interface, adapt or use parts of their codes:
   Stefan Grimme, W. Hujo, H. Kruse,             : VdW corrections, initial TS optimization,
                  C. Bannwarth                     DFT functionals, gCP, sTDA/sTD-DF
   Ed Valeev, F. Pavosevic, A. Kumar             : LibInt (2-el integral package), F12 methods
   Garnet Chan, S. Sharma, J. Yang, R. Olivares  : DMRG
   Ulf Ekstrom                                   : XCFun DFT Library
   Mihaly Kallay                                 : mrcc  (arbitrary order and MRCC methods)
   Andreas Klamt, Michael Diedenhofen            : otool_cosmo (COSMO solvation model)
   Jiri Pittner, Ondrej Demel                    : Mk-CCSD
   Frank Weinhold                                : gennbo (NPA and NBO analysis)
   Christopher J. Cramer and Donald G. Truhlar   : smd solvation model
   Lars Goerigk                                  : TD-DFT with DH, B97 family of functionals
   V. Asgeirsson, H. Jonsson                     : NEB implementation
   FAccTs GmbH                                   : IRC, NEB, NEB-TS, Multilevel, MM, QM/MM, CI optimization
   S Lehtola, MJT Oliveira, MAL Marques          : LibXC Library


 Your calculation uses the libint2 library for the computation of 2-el integrals
 For citations please refer to: http://libint.valeyev.net

 Your ORCA version has been built with support for libXC version: 4.2.3
 For citations please refer to: https://tddft.org/programs/libxc/

 This ORCA versions uses:
   CBLAS   interface :  Fast vector & matrix operations
   LAPACKE interface :  Fast linear algebra routines
   SCALAPACK package :  Parallel linear algebra routines


Your calculation utilizes the atom-pairwise dispersion correction
with the zero-damping scheme (D30)
Cite in your paper:
S.Grimme, J.Antony, S.Ehrlich and H.Krieg, J.Chem.Phys., 132, (2010), 154104 
   

XCFun DFT library Copyright 2009-2010 Ulf Ekstrom and contributors.
See http://admol.org/xcfun for more information. This is free soft-
ware; see the source code for copying conditions. There is ABSOLUTELY
NO WARRANTY; not even for MERCHANTABILITY or FITNESS FOR A PARTICULAR
PURPOSE. For details see the documentation. Scientific users of this 
library should cite U. Ekstrom, L. Visscher, R. Bast, A. J. Thorvald-
sen and K. Ruud; J.Chem.Theor.Comp. 2010, DOI: 10.1021/ct100117s
XCFun Version 0.99 
----- Orbital basis set information -----
Your calculation utilizes the basis: def2-TZVP
   F. Weigend and R. Ahlrichs, Phys. Chem. Chem. Phys. 7, 3297 (2005).

----- AuxJ basis set information -----
Your calculation utilizes the auxiliary basis: def2/J
   F. Weigend, Phys. Chem. Chem. Phys. 8, 1057 (2006).

================================================================================
                                        WARNINGS
                       Please study these warnings very carefully!
================================================================================


WARNING: Geometry Optimization
  ===> : Switching off AutoStart
         For restart on a previous wavefunction, please use MOREAD

INFO   : the flag for use of LIBINT has been found!

================================================================================
                                       INPUT FILE
================================================================================
NAME = C60.inp
|  1> # avogadro generated ORCA input file 
|  2> # Basic Mode
|  3> # 
|  4> ! wB97X-D3 OPT def2-SVP def2/J CPCM
|  5> %cpcm
|  6>   epsilon 3
|  7> end
|  8> %pal
|  9>  nprocs 4
| 10> end
| 11>  
| 12> 
| 13> * xyz 0 1
| 14>    C        5.55498       -0.88329       -3.24743
| 15>    C        6.26532       -2.08630       -3.20807
| 16>    C        5.56965       -3.31898       -3.19861
| 17>    C        4.17242       -3.33312       -3.22864
| 18>    C        3.45302       -2.11475       -3.26851
| 19>    C        4.13992       -0.89760       -3.27784
| 20>    C        3.41507        0.01333       -2.50443
| 21>    C        4.09603        0.95020       -1.69074
| 22>    C        5.49327        0.96434       -1.66071
| 23>    C        5.89431        1.24398       -0.35138
| 24>    C        7.03457        0.60464        0.19137
| 25>    C        7.75942       -0.30630       -0.58204
| 26>    C        7.35326       -0.58951       -1.90807
| 27>    C        6.22737        0.04178       -2.44399
| 28>    C        7.37672       -1.90474       -2.38030
| 29>    C        7.80663       -2.95353       -1.53251
| 30>    C        7.11973       -4.17068       -1.52318
| 31>    C        5.99415       -4.35456       -2.36151
| 32>    C        4.85927       -5.00872       -1.87418
| 33>    C        3.73338       -4.37744       -2.41010
| 34>    C        2.56934       -4.21672       -1.62097
| 35>    C        1.85900       -3.01370       -1.66034
| 36>    C        2.30364       -1.95606       -2.48933
| 37>    C        2.28019       -0.64083       -2.01710
| 38>    C        1.81179       -0.36647       -0.70986
| 39>    C        2.48418        0.55860        0.09357
| 40>    C        3.63354        1.22111       -0.39997
| 41>    C        4.74494        1.40267        0.42780
| 42>    C        4.72116        0.92405        1.75967
| 43>    C        5.84705        0.29276        2.29559
| 44>    C        7.01109        0.13204        1.50647
| 45>    C        7.72143       -1.07097        1.54583
| 46>    C        8.18392       -1.34188        0.25506
| 47>    C        8.20767       -2.67389       -0.22319
| 48>    C        7.76863       -3.71821        0.59536
| 49>    C        7.09625       -4.64327       -0.20808
| 50>    C        5.94689       -5.30578        0.28546
| 51>    C        4.83549       -5.48735       -0.54230
| 52>    C        3.68611       -5.32865        0.23687
| 53>    C        2.54585       -4.68931       -0.30588
| 54>    C        1.82101       -3.77838        0.46753
| 55>    C        2.22717       -3.49516        1.79356
| 56>    C        2.20371       -2.17994        2.26579
| 57>    C        1.77380       -1.13114        1.41800
| 58>    C        1.37275       -1.41078        0.10868
| 59>    C        1.39651       -2.74279       -0.36957
| 60>    C        2.46070        0.08601        1.40867
| 61>    C        3.58627        0.26989        2.24700
| 62>    C        4.01077       -0.76569        3.08410
| 63>    C        3.31511       -1.99837        3.09356
| 64>    C        4.02544       -3.20139        3.13292
| 65>    C        3.35306       -4.12645        2.32948
| 66>    C        4.08716       -5.04901        1.54620
| 67>    C        5.48439       -5.03488        1.57623
| 68>    C        6.16536       -4.09800        2.38992
| 69>    C        5.44051       -3.18707        3.16333
| 70>    C        6.12741       -1.96992        3.15400
| 71>    C        5.40801       -0.75156        3.11413
| 72>    C        7.27679       -2.12862        2.37482
| 73>    C        7.30024       -3.44384        1.90259
| 74> *
| 75> 
| 76> 
| 77>                          ****END OF INPUT****
================================================================================

                       *****************************
                       * Geometry Optimization Run *
                       *****************************

Geometry optimization settings:
Update method            Update   .... BFGS
Choice of coordinates    CoordSys .... Z-matrix Internals
Initial Hessian          InHess   .... Almoef's Model

Convergence Tolerances:
Energy Change            TolE     ....  5.0000e-06 Eh
Max. Gradient            TolMAXG  ....  3.0000e-04 Eh/bohr
RMS Gradient             TolRMSG  ....  1.0000e-04 Eh/bohr
Max. Displacement        TolMAXD  ....  4.0000e-03 bohr
RMS Displacement         TolRMSD  ....  2.0000e-03 bohr
Strict Convergence                ....  False
------------------------------------------------------------------------------
                        ORCA OPTIMIZATION COORDINATE SETUP
------------------------------------------------------------------------------

The optimization will be done in new redundant internal coordinates
Making redundant internal coordinates   ...  (new redundants) done
Evaluating the initial hessian          ...  (Almloef) done
Evaluating the coordinates              ...  done
Calculating the B-matrix                .... done
Calculating the G-matrix                .... done
Diagonalizing the G-matrix              .... done
The first mode is                       ....  456
The number of degrees of freedom        ....  174

    -----------------------------------------------------------------
                    Redundant Internal Coordinates


    -----------------------------------------------------------------
         Definition                    Initial Value    Approx d2E/dq
    -----------------------------------------------------------------
      1. B(C   1,C   0)                  1.3976         0.607530   
      2. B(C   2,C   1)                  1.4155         0.568994   
      3. B(C   3,C   2)                  1.3976         0.607540   
      4. B(C   4,C   3)                  1.4155         0.568990   
      5. B(C   5,C   0)                  1.4155         0.569010   
      6. B(C   5,C   4)                  1.3976         0.607524   
      7. B(C   6,C   5)                  1.3976         0.607531   
      8. B(C   7,C   6)                  1.4155         0.569011   
      9. B(C   8,C   7)                  1.3976         0.607517   
     10. B(C   9,C   8)                  1.3976         0.607521   
     11. B(C  10,C   9)                  1.4155         0.569009   
     12. B(C  11,C  10)                  1.3976         0.607517   
     13. B(C  12,C  11)                  1.4155         0.569007   
     14. B(C  13,C   8)                  1.4155         0.568993   
     15. B(C  13,C   0)                  1.3976         0.607519   
     16. B(C  13,C  12)                  1.3976         0.607530   
     17. B(C  14,C   1)                  1.3976         0.607521   
     18. B(C  14,C  12)                  1.3976         0.607517   
     19. B(C  15,C  14)                  1.4155         0.569006   
     20. B(C  16,C  15)                  1.3976         0.607524   
     21. B(C  17,C  16)                  1.4155         0.568999   
     22. B(C  17,C   2)                  1.3976         0.607532   
     23. B(C  18,C  17)                  1.3976         0.607528   
     24. B(C  19,C  18)                  1.3976         0.607540   
     25. B(C  19,C   3)                  1.3976         0.607528   
     26. B(C  20,C  19)                  1.4155         0.568994   
     27. B(C  21,C  20)                  1.3976         0.607510   
     28. B(C  22,C  21)                  1.4155         0.569005   
     29. B(C  22,C   4)                  1.3976         0.607520   
     30. B(C  23,C  22)                  1.3976         0.607518   
     31. B(C  23,C   6)                  1.3976         0.607528   
     32. B(C  24,C  23)                  1.4155         0.568993   
     33. B(C  25,C  24)                  1.3976         0.607532   
     34. B(C  26,C  25)                  1.4155         0.569007   
     35. B(C  26,C   7)                  1.3976         0.607521   
     36. B(C  27,C  26)                  1.3976         0.607521   
     37. B(C  27,C   9)                  1.3976         0.607538   
     38. B(C  28,C  27)                  1.4155         0.569013   
     39. B(C  29,C  28)                  1.3976         0.607530   
     40. B(C  30,C  29)                  1.4155         0.569006   
     41. B(C  30,C  10)                  1.3976         0.607510   
     42. B(C  31,C  30)                  1.3976         0.607530   
     43. B(C  32,C  31)                  1.3976         0.607521   
     44. B(C  32,C  11)                  1.3976         0.607532   
     45. B(C  33,C  32)                  1.4155         0.569001   
     46. B(C  33,C  15)                  1.3976         0.607542   
     47. B(C  34,C  33)                  1.3976         0.607515   
     48. B(C  35,C  34)                  1.3976         0.607545   
     49. B(C  35,C  16)                  1.3976         0.607518   
     50. B(C  36,C  35)                  1.4155         0.569007   
     51. B(C  37,C  36)                  1.3976         0.607531   
     52. B(C  37,C  18)                  1.4155         0.568987   
     53. B(C  38,C  37)                  1.3976         0.607530   
     54. B(C  39,C  38)                  1.4155         0.569009   
     55. B(C  39,C  20)                  1.3976         0.607539   
     56. B(C  40,C  39)                  1.3976         0.607543   
     57. B(C  41,C  40)                  1.4155         0.569003   
     58. B(C  42,C  41)                  1.3976         0.607538   
     59. B(C  43,C  42)                  1.4155         0.568990   
     60. B(C  44,C  43)                  1.3976         0.607536   
     61. B(C  44,C  24)                  1.3976         0.607545   
     62. B(C  45,C  40)                  1.3976         0.607516   
     63. B(C  45,C  21)                  1.3976         0.607521   
     64. B(C  45,C  44)                  1.4155         0.569000   
     65. B(C  46,C  43)                  1.3976         0.607524   
     66. B(C  46,C  25)                  1.3976         0.607518   
     67. B(C  47,C  46)                  1.4155         0.569016   
     68. B(C  47,C  28)                  1.3976         0.607510   
     69. B(C  48,C  47)                  1.3976         0.607532   
     70. B(C  49,C  48)                  1.4155         0.569005   
     71. B(C  49,C  42)                  1.3976         0.607518   
     72. B(C  50,C  49)                  1.3976         0.607522   
     73. B(C  51,C  50)                  1.3976         0.607545   
     74. B(C  51,C  41)                  1.3976         0.607530   
     75. B(C  52,C  51)                  1.4155         0.568993   
     76. B(C  52,C  38)                  1.3976         0.607515   
     77. B(C  53,C  52)                  1.3976         0.607540   
     78. B(C  53,C  36)                  1.3976         0.607518   
     79. B(C  54,C  53)                  1.4155         0.568987   
     80. B(C  55,C  54)                  1.3976         0.607531   
     81. B(C  55,C  50)                  1.4155         0.568989   
     82. B(C  56,C  55)                  1.3976         0.607524   
     83. B(C  57,C  56)                  1.4155         0.569008   
     84. B(C  57,C  48)                  1.3976         0.607518   
     85. B(C  57,C  29)                  1.3976         0.607528   
     86. B(C  58,C  56)                  1.3976         0.607517   
     87. B(C  58,C  31)                  1.4155         0.568990   
     88. B(C  59,C  58)                  1.3976         0.607539   
     89. B(C  59,C  54)                  1.3976         0.607528   
     90. B(C  59,C  34)                  1.4155         0.569015   
     91. A(C   1,C   0,C   5)          120.0004         0.425875   
     92. A(C   5,C   0,C  13)          119.9999         0.425874   
     93. A(C   1,C   0,C  13)          107.9998         0.430906   
     94. A(C   2,C   1,C  14)          119.9997         0.425872   
     95. A(C   0,C   1,C   2)          119.9996         0.425873   
     96. A(C   0,C   1,C  14)          108.0003         0.430906   
     97. A(C   1,C   2,C   3)          120.0004         0.425874   
     98. A(C   3,C   2,C  17)          107.9999         0.430908   
     99. A(C   1,C   2,C  17)          119.9999         0.425873   
    100. A(C   4,C   3,C  19)          120.0003         0.425872   
    101. A(C   2,C   3,C   4)          119.9997         0.425874   
    102. A(C   2,C   3,C  19)          108.0001         0.430908   
    103. A(C   3,C   4,C  22)          119.9996         0.425871   
    104. A(C   3,C   4,C   5)          120.0001         0.425872   
    105. A(C   5,C   4,C  22)          108.0001         0.430905   
    106. A(C   4,C   5,C   6)          108.0000         0.430906   
    107. A(C   0,C   5,C   4)          119.9998         0.425874   
    108. A(C   0,C   5,C   6)          120.0003         0.425875   
    109. A(C   7,C   6,C  23)          119.9997         0.425875   
    110. A(C   5,C   6,C  23)          108.0002         0.430907   
    111. A(C   5,C   6,C   7)          120.0001         0.425875   
    112. A(C   6,C   7,C   8)          120.0000         0.425874   
    113. A(C   6,C   7,C  26)          120.0004         0.425874   
    114. A(C   8,C   7,C  26)          107.9997         0.430904   
    115. A(C   7,C   8,C   9)          107.9998         0.430904   
    116. A(C   9,C   8,C  13)          120.0001         0.425872   
    117. A(C   7,C   8,C  13)          119.9998         0.425871   
    118. A(C  10,C   9,C  27)          119.9999         0.425876   
    119. A(C   8,C   9,C  27)          108.0004         0.430907   
    120. A(C   8,C   9,C  10)          119.9999         0.425874   
    121. A(C  11,C  10,C  30)          107.9997         0.430903   
    122. A(C   9,C  10,C  11)          120.0001         0.425873   
    123. A(C   9,C  10,C  30)          120.0000         0.425873   
    124. A(C  12,C  11,C  32)          120.0002         0.425875   
    125. A(C  10,C  11,C  32)          108.0001         0.430905   
    126. A(C  10,C  11,C  12)          120.0000         0.425873   
    127. A(C  13,C  12,C  14)          108.0001         0.430905   
    128. A(C  11,C  12,C  14)          120.0000         0.425873   
    129. A(C  11,C  12,C  13)          120.0002         0.425875   
    130. A(C   0,C  13,C   8)          119.9999         0.425872   
    131. A(C   8,C  13,C  12)          119.9998         0.425873   
    132. A(C   0,C  13,C  12)          108.0001         0.430906   
    133. A(C   1,C  14,C  12)          107.9997         0.430904   
    134. A(C  12,C  14,C  15)          119.9995         0.425873   
    135. A(C   1,C  14,C  15)          120.0004         0.425873   
    136. A(C  14,C  15,C  16)          119.9998         0.425874   
    137. A(C  14,C  15,C  33)          120.0005         0.425876   
    138. A(C  16,C  15,C  33)          108.0000         0.430908   
    139. A(C  17,C  16,C  35)          120.0003         0.425872   
    140. A(C  15,C  16,C  35)          107.9995         0.430905   
    141. A(C  15,C  16,C  17)          120.0000         0.425873   
    142. A(C   2,C  17,C  18)          108.0000         0.430907   
    143. A(C   2,C  17,C  16)          120.0002         0.425874   
    144. A(C  16,C  17,C  18)          119.9998         0.425873   
    145. A(C  19,C  18,C  37)          120.0003         0.425873   
    146. A(C  17,C  18,C  37)          120.0000         0.425872   
    147. A(C  17,C  18,C  19)          108.0000         0.430908   
    148. A(C  18,C  19,C  20)          119.9995         0.425874   
    149. A(C   3,C  19,C  20)          120.0001         0.425873   
    150. A(C   3,C  19,C  18)          107.9999         0.430908   
    151. A(C  21,C  20,C  39)          108.0000         0.430905   
    152. A(C  19,C  20,C  39)          120.0007         0.425874   
    153. A(C  19,C  20,C  21)          119.9997         0.425871   
    154. A(C  20,C  21,C  45)          107.9997         0.430903   
    155. A(C  20,C  21,C  22)          120.0001         0.425872   
    156. A(C  22,C  21,C  45)          120.0001         0.425873   
    157. A(C  21,C  22,C  23)          119.9997         0.425873   
    158. A(C   4,C  22,C  23)          107.9997         0.430904   
    159. A(C   4,C  22,C  21)          120.0003         0.425873   
    160. A(C  22,C  23,C  24)          119.9999         0.425871   
    161. A(C   6,C  23,C  24)          120.0003         0.425873   
    162. A(C   6,C  23,C  22)          108.0000         0.430905   
    163. A(C  23,C  24,C  25)          119.9994         0.425873   
    164. A(C  25,C  24,C  44)          108.0002         0.430909   
    165. A(C  23,C  24,C  44)          120.0004         0.425875   
    166. A(C  26,C  25,C  46)          119.9996         0.425873   
    167. A(C  24,C  25,C  46)          108.0000         0.430906   
    168. A(C  24,C  25,C  26)          120.0006         0.425875   
    169. A(C  25,C  26,C  27)          120.0000         0.425874   
    170. A(C   7,C  26,C  27)          108.0003         0.430905   
    171. A(C   7,C  26,C  25)          119.9995         0.425874   
    172. A(C  26,C  27,C  28)          120.0003         0.425874   
    173. A(C   9,C  27,C  28)          120.0002         0.425877   
    174. A(C   9,C  27,C  26)          107.9998         0.430907   
    175. A(C  29,C  28,C  47)          108.0000         0.430904   
    176. A(C  27,C  28,C  47)          119.9998         0.425873   
    177. A(C  27,C  28,C  29)          120.0003         0.425876   
    178. A(C  30,C  29,C  57)          119.9999         0.425874   
    179. A(C  28,C  29,C  57)          108.0002         0.430907   
    180. A(C  28,C  29,C  30)          119.9997         0.425875   
    181. A(C  29,C  30,C  31)          120.0003         0.425875   
    182. A(C  10,C  30,C  31)          108.0000         0.430904   
    183. A(C  10,C  30,C  29)          119.9999         0.425872   
    184. A(C  32,C  31,C  58)          119.9999         0.425871   
    185. A(C  30,C  31,C  32)          108.0001         0.430906   
    186. A(C  30,C  31,C  58)          119.9999         0.425872   
    187. A(C  31,C  32,C  33)          120.0000         0.425873   
    188. A(C  11,C  32,C  33)          119.9999         0.425874   
    189. A(C  11,C  32,C  31)          108.0001         0.430906   
    190. A(C  32,C  33,C  34)          119.9998         0.425872   
    191. A(C  15,C  33,C  34)          108.0004         0.430906   
    192. A(C  15,C  33,C  32)          119.9999         0.425875   
    193. A(C  35,C  34,C  59)          120.0006         0.425878   
    194. A(C  33,C  34,C  59)          120.0000         0.425874   
    195. A(C  33,C  34,C  35)          107.9994         0.430907   
    196. A(C  34,C  35,C  36)          120.0000         0.425877   
    197. A(C  16,C  35,C  36)          119.9996         0.425873   
    198. A(C  16,C  35,C  34)          108.0006         0.430907   
    199. A(C  35,C  36,C  37)          120.0005         0.425875   
    200. A(C  37,C  36,C  53)          107.9996         0.430905   
    201. A(C  35,C  36,C  53)          120.0001         0.425873   
    202. A(C  36,C  37,C  38)          108.0005         0.430907   
    203. A(C  18,C  37,C  38)          119.9995         0.425872   
    204. A(C  18,C  37,C  36)          119.9997         0.425872   
    205. A(C  37,C  38,C  39)          120.0006         0.425875   
    206. A(C  39,C  38,C  52)          120.0002         0.425873   
    207. A(C  37,C  38,C  52)          107.9995         0.430905   
    208. A(C  38,C  39,C  40)          119.9997         0.425877   
    209. A(C  20,C  39,C  40)          108.0005         0.430910   
    210. A(C  20,C  39,C  38)          119.9995         0.425876   
    211. A(C  41,C  40,C  45)          119.9995         0.425872   
    212. A(C  39,C  40,C  45)          108.0000         0.430907   
    213. A(C  39,C  40,C  41)          120.0005         0.425876   
    214. A(C  40,C  41,C  42)          120.0005         0.425875   
    215. A(C  42,C  41,C  51)          108.0000         0.430908   
    216. A(C  40,C  41,C  51)          119.9999         0.425874   
    217. A(C  41,C  42,C  43)          119.9996         0.425874   
    218. A(C  43,C  42,C  49)          119.9998         0.425871   
    219. A(C  41,C  42,C  49)          108.0002         0.430906   
    220. A(C  44,C  43,C  46)          108.0002         0.430907   
    221. A(C  42,C  43,C  46)          120.0000         0.425872   
    222. A(C  42,C  43,C  44)          120.0003         0.425873   
    223. A(C  43,C  44,C  45)          119.9997         0.425875   
    224. A(C  24,C  44,C  45)          119.9997         0.425876   
    225. A(C  24,C  44,C  43)          108.0001         0.430909   
    226. A(C  40,C  45,C  44)          120.0003         0.425872   
    227. A(C  21,C  45,C  44)          120.0002         0.425873   
    228. A(C  21,C  45,C  40)          107.9999         0.430904   
    229. A(C  43,C  46,C  47)          120.0000         0.425875   
    230. A(C  25,C  46,C  47)          120.0005         0.425874   
    231. A(C  25,C  46,C  43)          107.9995         0.430905   
    232. A(C  46,C  47,C  48)          120.0003         0.425876   
    233. A(C  28,C  47,C  48)          107.9997         0.430905   
    234. A(C  28,C  47,C  46)          119.9998         0.425873   
    235. A(C  49,C  48,C  57)          119.9996         0.425873   
    236. A(C  47,C  48,C  57)          108.0003         0.430906   
    237. A(C  47,C  48,C  49)          120.0002         0.425875   
    238. A(C  48,C  49,C  50)          120.0005         0.425873   
    239. A(C  42,C  49,C  50)          107.9995         0.430904   
    240. A(C  42,C  49,C  48)          119.9998         0.425873   
    241. A(C  51,C  50,C  55)          120.0000         0.425874   
    242. A(C  49,C  50,C  55)          119.9995         0.425871   
    243. A(C  49,C  50,C  51)          108.0003         0.430908   
    244. A(C  50,C  51,C  52)          120.0001         0.425875   
    245. A(C  41,C  51,C  52)          119.9998         0.425873   
    246. A(C  41,C  51,C  50)          108.0001         0.430909   
    247. A(C  51,C  52,C  53)          120.0001         0.425874   
    248. A(C  38,C  52,C  53)          108.0002         0.430906   
    249. A(C  38,C  52,C  51)          119.9997         0.425871   
    250. A(C  52,C  53,C  54)          119.9999         0.425873   
    251. A(C  36,C  53,C  54)          119.9995         0.425871   
    252. A(C  36,C  53,C  52)          108.0002         0.430907   
    253. A(C  55,C  54,C  59)          108.0002         0.430907   
    254. A(C  53,C  54,C  59)          120.0001         0.425872   
    255. A(C  53,C  54,C  55)          119.9999         0.425872   
    256. A(C  54,C  55,C  56)          108.0000         0.430906   
    257. A(C  50,C  55,C  56)          120.0002         0.425872   
    258. A(C  50,C  55,C  54)          120.0000         0.425873   
    259. A(C  57,C  56,C  58)          120.0001         0.425873   
    260. A(C  55,C  56,C  58)          107.9997         0.430904   
    261. A(C  55,C  56,C  57)          119.9999         0.425874   
    262. A(C  48,C  57,C  56)          120.0003         0.425873   
    263. A(C  29,C  57,C  56)          120.0001         0.425875   
    264. A(C  29,C  57,C  48)          107.9998         0.430905   
    265. A(C  56,C  58,C  59)          108.0002         0.430906   
    266. A(C  31,C  58,C  59)          119.9998         0.425874   
    267. A(C  31,C  58,C  56)          119.9997         0.425871   
    268. A(C  54,C  59,C  58)          107.9999         0.430908   
    269. A(C  34,C  59,C  58)          120.0005         0.425877   
    270. A(C  34,C  59,C  54)          119.9998         0.425876   
    271. D(C  14,C   1,C   0,C   5)   -142.6224         0.025479   
    272. D(C   2,C   1,C   0,C  13)    142.6224         0.025479   
    273. D(C  14,C   1,C   0,C  13)      0.0004         0.025479   
    274. D(C   2,C   1,C   0,C   5)     -0.0004         0.025479   
    275. D(C   3,C   2,C   1,C  14)    138.1897         0.022205   
    276. D(C   3,C   2,C   1,C   0)      0.0005         0.022205   
    277. D(C  17,C   2,C   1,C   0)   -138.1896         0.022205   
    278. D(C  17,C   2,C   1,C  14)     -0.0004         0.022205   
    279. D(C   4,C   3,C   2,C  17)    142.6228         0.025480   
    280. D(C  19,C   3,C   2,C   1)   -142.6230         0.025480   
    281. D(C  19,C   3,C   2,C  17)     -0.0000         0.025480   
    282. D(C   4,C   3,C   2,C   1)     -0.0002         0.025480   
    283. D(C   5,C   4,C   3,C  19)    138.1895         0.022205   
    284. D(C  22,C   4,C   3,C  19)      0.0000         0.022205   
    285. D(C  22,C   4,C   3,C   2)   -138.1898         0.022205   
    286. D(C   5,C   4,C   3,C   2)     -0.0003         0.022205   
    287. D(C   6,C   5,C   4,C   3)   -142.6223         0.025479   
    288. D(C   0,C   5,C   4,C  22)    142.6227         0.025479   
    289. D(C   6,C   5,C   4,C  22)     -0.0001         0.025479   
    290. D(C   4,C   5,C   0,C  13)   -138.1900         0.022207   
    291. D(C   6,C   5,C   0,C   1)    138.1896         0.022207   
    292. D(C   6,C   5,C   0,C  13)     -0.0002         0.022207   
    293. D(C   4,C   5,C   0,C   1)     -0.0001         0.022207   
    294. D(C   0,C   5,C   4,C   3)      0.0005         0.025479   
    295. D(C   7,C   6,C   5,C   4)    142.6228         0.025480   
    296. D(C  23,C   6,C   5,C   0)   -142.6224         0.025480   
    297. D(C   7,C   6,C   5,C   0)      0.0002         0.025480   
    298. D(C  23,C   6,C   5,C   4)      0.0002         0.025480   
    299. D(C   8,C   7,C   6,C   5)      0.0001         0.022207   
    300. D(C  26,C   7,C   6,C   5)   -138.1896         0.022207   
    301. D(C   8,C   7,C   6,C  23)    138.1898         0.022207   
    302. D(C  26,C   7,C   6,C  23)      0.0002         0.022207   
    303. D(C  13,C   8,C   7,C  26)    142.6227         0.025478   
    304. D(C  13,C   8,C   7,C   6)     -0.0002         0.025478   
    305. D(C   9,C   8,C   7,C  26)      0.0004         0.025478   
    306. D(C   9,C   8,C   7,C   6)   -142.6225         0.025478   
    307. D(C  27,C   9,C   8,C   7)     -0.0001         0.025479   
    308. D(C  27,C   9,C   8,C  13)   -142.6223         0.025479   
    309. D(C  10,C   9,C   8,C  13)      0.0006         0.025479   
    310. D(C  10,C   9,C   8,C   7)    142.6228         0.025479   
    311. D(C  30,C  10,C   9,C  27)      0.0001         0.022207   
    312. D(C  30,C  10,C   9,C   8)   -138.1900         0.022207   
    313. D(C  11,C  10,C   9,C   8)     -0.0008         0.022207   
    314. D(C  11,C  10,C   9,C  27)    138.1894         0.022207   
    315. D(C  32,C  11,C  10,C  30)     -0.0001         0.025478   
    316. D(C  32,C  11,C  10,C   9)   -142.6225         0.025478   
    317. D(C  12,C  11,C  10,C   9)      0.0005         0.025478   
    318. D(C  12,C  11,C  10,C  30)    142.6228         0.025478   
    319. D(C  14,C  12,C  11,C  32)     -0.0002         0.022206   
    320. D(C  14,C  12,C  11,C  10)   -138.1902         0.022206   
    321. D(C  13,C  12,C  11,C  32)    138.1899         0.022206   
    322. D(C  13,C  12,C  11,C  10)     -0.0001         0.022206   
    323. D(C   0,C  13,C  12,C  14)      0.0005         0.025479   
    324. D(C   0,C  13,C  12,C  11)   -142.6225         0.025479   
    325. D(C  12,C  13,C   8,C   9)     -0.0002         0.022205   
    326. D(C   8,C  13,C  12,C  14)    142.6229         0.025479   
    327. D(C   0,C  13,C   8,C   9)    138.1894         0.022205   
    328. D(C   0,C  13,C   8,C   7)      0.0002         0.022205   
    329. D(C  12,C  13,C   0,C   5)    142.6224         0.025478   
    330. D(C  12,C  13,C   8,C   7)   -138.1894         0.022205   
    331. D(C  12,C  13,C   0,C   1)     -0.0005         0.025478   
    332. D(C   8,C  13,C  12,C  11)     -0.0001         0.025479   
    333. D(C   8,C  13,C   0,C   1)   -142.6229         0.025478   
    334. D(C   8,C  13,C   0,C   5)      0.0001         0.025478   
    335. D(C  15,C  14,C  12,C  13)   -142.6225         0.025478   
    336. D(C  15,C  14,C   1,C   0)    142.6218         0.025479   
    337. D(C   1,C  14,C  12,C  13)     -0.0003         0.025478   
    338. D(C   1,C  14,C  12,C  11)    142.6228         0.025478   
    339. D(C  15,C  14,C  12,C  11)      0.0006         0.025478   
    340. D(C  15,C  14,C   1,C   2)     -0.0002         0.025479   
    341. D(C  12,C  14,C   1,C   2)   -142.6220         0.025479   
    342. D(C  12,C  14,C   1,C   0)     -0.0001         0.025479   
    343. D(C  33,C  15,C  14,C   1)   -138.1894         0.022206   
    344. D(C  33,C  15,C  14,C  12)     -0.0005         0.022206   
    345. D(C  16,C  15,C  14,C  12)    138.1896         0.022206   
    346. D(C  16,C  15,C  14,C   1)      0.0007         0.022206   
    347. D(C  35,C  16,C  15,C  33)      0.0000         0.025479   
    348. D(C  17,C  16,C  15,C  33)    142.6225         0.025479   
    349. D(C  17,C  16,C  15,C  14)     -0.0007         0.025479   
    350. D(C  35,C  16,C  15,C  14)   -142.6232         0.025479   
    351. D(C  18,C  17,C  16,C  35)     -0.0003         0.022206   
    352. D(C  18,C  17,C  16,C  15)   -138.1895         0.022206   
    353. D(C  18,C  17,C   2,C   1)    142.6229         0.025480   
    354. D(C  18,C  17,C   2,C   3)     -0.0002         0.025480   
    355. D(C   2,C  17,C  16,C  15)      0.0001         0.022206   
    356. D(C  16,C  17,C   2,C   3)   -142.6228         0.025480   
    357. D(C  16,C  17,C   2,C   1)      0.0004         0.025480   
    358. D(C   2,C  17,C  16,C  35)    138.1894         0.022206   
    359. D(C  37,C  18,C  17,C  16)     -0.0001         0.025479   
    360. D(C  37,C  18,C  17,C   2)   -142.6228         0.025479   
    361. D(C  19,C  18,C  17,C  16)    142.6231         0.025479   
    362. D(C  19,C  18,C  17,C   2)      0.0004         0.025479   
    363. D(C  20,C  19,C  18,C  37)      0.0007         0.025480   
    364. D(C  20,C  19,C  18,C  17)   -142.6225         0.025480   
    365. D(C   3,C  19,C  18,C  37)    142.6227         0.025480   
    366. D(C   3,C  19,C  18,C  17)     -0.0004         0.025480   
    367. D(C  20,C  19,C   3,C   4)     -0.0005         0.025479   
    368. D(C  20,C  19,C   3,C   2)    142.6220         0.025479   
    369. D(C  18,C  19,C   3,C   4)   -142.6223         0.025479   
    370. D(C  18,C  19,C   3,C   2)      0.0003         0.025479   
    371. D(C  39,C  20,C  19,C  18)     -0.0006         0.022205   
    372. D(C  39,C  20,C  19,C   3)   -138.1895         0.022205   
    373. D(C  21,C  20,C  19,C  18)    138.1896         0.022205   
    374. D(C  21,C  20,C  19,C   3)      0.0007         0.022205   
    375. D(C  45,C  21,C  20,C  39)      0.0005         0.025478   
    376. D(C  45,C  21,C  20,C  19)   -142.6229         0.025478   
    377. D(C  22,C  21,C  20,C  39)    142.6230         0.025478   
    378. D(C  22,C  21,C  20,C  19)     -0.0004         0.025478   
    379. D(C  23,C  22,C  21,C  45)      0.0002         0.022206   
    380. D(C  23,C  22,C  21,C  20)   -138.1892         0.022206   
    381. D(C   4,C  22,C  21,C  45)    138.1893         0.022206   
    382. D(C   4,C  22,C  21,C  20)     -0.0002         0.022206   
    383. D(C  23,C  22,C   4,C   5)     -0.0001         0.025479   
    384. D(C  23,C  22,C   4,C   3)    142.6224         0.025479   
    385. D(C  21,C  22,C   4,C   5)   -142.6221         0.025479   
    386. D(C  21,C  22,C   4,C   3)      0.0003         0.025479   
    387. D(C  24,C  23,C  22,C  21)     -0.0005         0.025478   
    388. D(C  24,C  23,C  22,C   4)   -142.6228         0.025478   
    389. D(C   6,C  23,C  22,C  21)    142.6225         0.025478   
    390. D(C   6,C  23,C  22,C   4)      0.0002         0.025478   
    391. D(C  24,C  23,C   6,C   7)     -0.0002         0.025479   
    392. D(C  24,C  23,C   6,C   5)    142.6225         0.025479   
    393. D(C  22,C  23,C   6,C   7)   -142.6230         0.025479   
    394. D(C  22,C  23,C   6,C   5)     -0.0003         0.025479   
    395. D(C  25,C  24,C  23,C  22)    138.1901         0.022205   
    396. D(C  25,C  24,C  23,C   6)      0.0002         0.022205   
    397. D(C  44,C  24,C  23,C   6)   -138.1897         0.022205   
    398. D(C  44,C  24,C  23,C  22)      0.0003         0.022205   
    399. D(C  46,C  25,C  24,C  44)      0.0000         0.025480   
    400. D(C  46,C  25,C  24,C  23)   -142.6229         0.025480   
    401. D(C  26,C  25,C  24,C  44)    142.6227         0.025480   
    402. D(C  26,C  25,C  24,C  23)     -0.0002         0.025480   
    403. D(C  27,C  26,C  25,C  46)      0.0007         0.022206   
    404. D(C  27,C  26,C  25,C  24)   -138.1893         0.022206   
    405. D(C   7,C  26,C  25,C  46)    138.1902         0.022206   
    406. D(C   7,C  26,C  25,C  24)      0.0002         0.022206   
    407. D(C  27,C  26,C   7,C   8)     -0.0005         0.025479   
    408. D(C  27,C  26,C   7,C   6)    142.6222         0.025479   
    409. D(C  25,C  26,C   7,C   8)   -142.6229         0.025479   
    410. D(C  25,C  26,C   7,C   6)     -0.0002         0.025479   
    411. D(C  28,C  27,C  26,C  25)     -0.0005         0.025479   
    412. D(C  28,C  27,C  26,C   7)   -142.6227         0.025479   
    413. D(C   9,C  27,C  26,C  25)    142.6226         0.025479   
    414. D(C   9,C  27,C  26,C   7)      0.0004         0.025479   
    415. D(C  28,C  27,C   9,C  10)      0.0001         0.025480   
    416. D(C  28,C  27,C   9,C   8)    142.6230         0.025480   
    417. D(C  26,C  27,C   9,C  10)   -142.6231         0.025480   
    418. D(C  26,C  27,C   9,C   8)     -0.0002         0.025480   
    419. D(C  47,C  28,C  27,C  26)      0.0001         0.022207   
    420. D(C  47,C  28,C  27,C   9)   -138.1900         0.022207   
    421. D(C  29,C  28,C  27,C  26)    138.1898         0.022207   
    422. D(C  29,C  28,C  27,C   9)     -0.0003         0.022207   
    423. D(C  57,C  29,C  28,C  47)      0.0003         0.025479   
    424. D(C  57,C  29,C  28,C  27)   -142.6223         0.025479   
    425. D(C  30,C  29,C  28,C  47)    142.6227         0.025479   
    426. D(C  30,C  29,C  28,C  27)      0.0001         0.025479   
    427. D(C  31,C  30,C  29,C  57)     -0.0002         0.022206   
    428. D(C  10,C  30,C  29,C  57)    138.1897         0.022206   
    429. D(C  10,C  30,C  29,C  28)      0.0001         0.022206   
    430. D(C  31,C  30,C  10,C  11)      0.0003         0.025478   
    431. D(C  31,C  30,C  10,C   9)    142.6226         0.025478   
    432. D(C  29,C  30,C  10,C  11)   -142.6226         0.025478   
    433. D(C  29,C  30,C  10,C   9)     -0.0003         0.025478   
    434. D(C  31,C  30,C  29,C  28)   -138.1897         0.022206   
    435. D(C  58,C  31,C  30,C  29)     -0.0000         0.025479   
    436. D(C  58,C  31,C  30,C  10)   -142.6227         0.025479   
    437. D(C  32,C  31,C  30,C  29)    142.6224         0.025479   
    438. D(C  32,C  31,C  30,C  10)     -0.0003         0.025479   
    439. D(C  33,C  32,C  31,C  58)      0.0001         0.025479   
    440. D(C  33,C  32,C  31,C  30)   -142.6223         0.025479   
    441. D(C  11,C  32,C  31,C  58)    142.6227         0.025479   
    442. D(C  11,C  32,C  31,C  30)      0.0002         0.025479   
    443. D(C  33,C  32,C  11,C  12)     -0.0003         0.025480   
    444. D(C  33,C  32,C  11,C  10)    142.6226         0.025480   
    445. D(C  31,C  32,C  11,C  12)   -142.6229         0.025480   
    446. D(C  31,C  32,C  11,C  10)     -0.0001         0.025480   
    447. D(C  34,C  33,C  32,C  31)     -0.0001         0.022206   
    448. D(C  34,C  33,C  32,C  11)   -138.1898         0.022206   
    449. D(C  15,C  33,C  32,C  31)    138.1901         0.022206   
    450. D(C  15,C  33,C  32,C  11)      0.0004         0.022206   
    451. D(C  34,C  33,C  15,C  16)     -0.0000         0.025480   
    452. D(C  34,C  33,C  15,C  14)    142.6229         0.025480   
    453. D(C  32,C  33,C  15,C  16)   -142.6229         0.025480   
    454. D(C  32,C  33,C  15,C  14)      0.0000         0.025480   
    455. D(C  59,C  34,C  33,C  32)      0.0002         0.025478   
    456. D(C  59,C  34,C  33,C  15)   -142.6227         0.025478   
    457. D(C  35,C  34,C  33,C  32)    142.6229         0.025478   
    458. D(C  35,C  34,C  33,C  15)      0.0000         0.025478   
    459. D(C  36,C  35,C  34,C  59)     -0.0003         0.025481   
    460. D(C  36,C  35,C  34,C  33)   -142.6228         0.025481   
    461. D(C  16,C  35,C  34,C  59)    142.6225         0.025481   
    462. D(C  16,C  35,C  34,C  33)     -0.0000         0.025481   
    463. D(C  36,C  35,C  16,C  17)      0.0005         0.025478   
    464. D(C  36,C  35,C  16,C  15)    142.6229         0.025478   
    465. D(C  34,C  35,C  16,C  17)   -142.6224         0.025478   
    466. D(C  34,C  35,C  16,C  15)     -0.0000         0.025478   
    467. D(C  53,C  36,C  35,C  34)     -0.0000         0.022206   
    468. D(C  53,C  36,C  35,C  16)   -138.1902         0.022206   
    469. D(C  37,C  36,C  35,C  34)    138.1898         0.022206   
    470. D(C  37,C  36,C  35,C  16)     -0.0004         0.022206   
    471. D(C  38,C  37,C  36,C  53)      0.0008         0.025480   
    472. D(C  38,C  37,C  36,C  35)   -142.6221         0.025480   
    473. D(C  18,C  37,C  36,C  53)    142.6229         0.025480   
    474. D(C  18,C  37,C  36,C  35)      0.0000         0.025480   
    475. D(C  38,C  37,C  18,C  19)     -0.0005         0.022205   
    476. D(C  38,C  37,C  18,C  17)    138.1897         0.022205   
    477. D(C  36,C  37,C  18,C  19)   -138.1900         0.022205   
    478. D(C  36,C  37,C  18,C  17)      0.0003         0.022205   
    479. D(C  52,C  38,C  37,C  36)     -0.0007         0.025479   
    480. D(C  52,C  38,C  37,C  18)   -142.6229         0.025479   
    481. D(C  39,C  38,C  37,C  36)    142.6225         0.025479   
    482. D(C  39,C  38,C  37,C  18)      0.0003         0.025479   
    483. D(C  40,C  39,C  38,C  52)      0.0004         0.022207   
    484. D(C  40,C  39,C  38,C  37)   -138.1896         0.022207   
    485. D(C  20,C  39,C  38,C  52)    138.1898         0.022207   
    486. D(C  20,C  39,C  38,C  37)     -0.0001         0.022207   
    487. D(C  40,C  39,C  20,C  21)     -0.0004         0.025480   
    488. D(C  40,C  39,C  20,C  19)    142.6225         0.025480   
    489. D(C  38,C  39,C  20,C  21)   -142.6226         0.025480   
    490. D(C  38,C  39,C  20,C  19)      0.0003         0.025480   
    491. D(C  45,C  40,C  39,C  38)    142.6223         0.025481   
    492. D(C  45,C  40,C  39,C  20)      0.0002         0.025481   
    493. D(C  41,C  40,C  39,C  38)     -0.0001         0.025481   
    494. D(C  41,C  40,C  39,C  20)   -142.6222         0.025481   
    495. D(C  51,C  41,C  40,C  45)   -138.1900         0.022206   
    496. D(C  51,C  41,C  40,C  39)     -0.0003         0.022206   
    497. D(C  42,C  41,C  40,C  45)      0.0004         0.022206   
    498. D(C  42,C  41,C  40,C  39)    138.1900         0.022206   
    499. D(C  49,C  42,C  41,C  51)      0.0005         0.025480   
    500. D(C  49,C  42,C  41,C  40)   -142.6227         0.025480   
    501. D(C  43,C  42,C  41,C  51)    142.6224         0.025480   
    502. D(C  43,C  42,C  41,C  40)     -0.0007         0.025480   
    503. D(C  46,C  43,C  42,C  49)     -0.0004         0.022205   
    504. D(C  46,C  43,C  42,C  41)   -138.1895         0.022205   
    505. D(C  44,C  43,C  42,C  49)    138.1901         0.022205   
    506. D(C  44,C  43,C  42,C  41)      0.0010         0.022205   
    507. D(C  45,C  44,C  43,C  46)    142.6223         0.025480   
    508. D(C  45,C  44,C  43,C  42)     -0.0009         0.025480   
    509. D(C  24,C  44,C  43,C  46)      0.0004         0.025480   
    510. D(C  24,C  44,C  43,C  42)   -142.6229         0.025480   
    511. D(C  45,C  44,C  24,C  25)   -142.6222         0.025481   
    512. D(C  45,C  44,C  24,C  23)      0.0003         0.025481   
    513. D(C  43,C  44,C  24,C  25)     -0.0003         0.025481   
    514. D(C  43,C  44,C  24,C  23)    142.6222         0.025481   
    515. D(C  21,C  45,C  44,C  43)   -138.1897         0.022206   
    516. D(C  21,C  45,C  44,C  24)     -0.0006         0.022206   
    517. D(C  44,C  45,C  40,C  41)     -0.0003         0.025478   
    518. D(C  44,C  45,C  40,C  39)   -142.6231         0.025478   
    519. D(C  21,C  45,C  40,C  41)    142.6229         0.025478   
    520. D(C  21,C  45,C  40,C  39)      0.0000         0.025478   
    521. D(C  44,C  45,C  21,C  22)      0.0004         0.025479   
    522. D(C  44,C  45,C  21,C  20)    142.6229         0.025479   
    523. D(C  40,C  45,C  21,C  22)   -142.6228         0.025479   
    524. D(C  40,C  45,C  44,C  24)    138.1896         0.022206   
    525. D(C  40,C  45,C  21,C  20)     -0.0003         0.025479   
    526. D(C  40,C  45,C  44,C  43)      0.0006         0.022206   
    527. D(C  47,C  46,C  43,C  44)   -142.6232         0.025479   
    528. D(C  47,C  46,C  43,C  42)      0.0002         0.025479   
    529. D(C  25,C  46,C  43,C  44)     -0.0004         0.025479   
    530. D(C  25,C  46,C  43,C  42)    142.6230         0.025479   
    531. D(C  47,C  46,C  25,C  26)     -0.0004         0.025478   
    532. D(C  47,C  46,C  25,C  24)    142.6228         0.025478   
    533. D(C  43,C  46,C  25,C  26)   -142.6229         0.025478   
    534. D(C  43,C  46,C  25,C  24)      0.0002         0.025478   
    535. D(C  48,C  47,C  46,C  43)      0.0001         0.022207   
    536. D(C  48,C  47,C  46,C  25)   -138.1893         0.022207   
    537. D(C  28,C  47,C  46,C  43)    138.1894         0.022207   
    538. D(C  28,C  47,C  46,C  25)     -0.0001         0.022207   
    539. D(C  48,C  47,C  28,C  29)     -0.0001         0.025478   
    540. D(C  48,C  47,C  28,C  27)    142.6227         0.025478   
    541. D(C  46,C  47,C  28,C  29)   -142.6226         0.025478   
    542. D(C  46,C  47,C  28,C  27)      0.0002         0.025478   
    543. D(C  57,C  48,C  47,C  46)    142.6222         0.025480   
    544. D(C  57,C  48,C  47,C  28)     -0.0000         0.025480   
    545. D(C  49,C  48,C  47,C  46)     -0.0004         0.025480   
    546. D(C  49,C  48,C  47,C  28)   -142.6226         0.025480   
    547. D(C  50,C  49,C  48,C  57)     -0.0005         0.022206   
    548. D(C  50,C  49,C  48,C  47)    138.1894         0.022206   
    549. D(C  42,C  49,C  48,C  57)   -138.1897         0.022206   
    550. D(C  42,C  49,C  48,C  47)      0.0002         0.022206   
    551. D(C  50,C  49,C  42,C  43)   -142.6224         0.025478   
    552. D(C  50,C  49,C  42,C  41)     -0.0005         0.025478   
    553. D(C  48,C  49,C  42,C  43)      0.0001         0.025478   
    554. D(C  48,C  49,C  42,C  41)    142.6220         0.025478   
    555. D(C  55,C  50,C  49,C  48)      0.0004         0.025479   
    556. D(C  55,C  50,C  49,C  42)    142.6226         0.025479   
    557. D(C  51,C  50,C  49,C  48)   -142.6219         0.025479   
    558. D(C  51,C  50,C  49,C  42)      0.0004         0.025479   
    559. D(C  52,C  51,C  50,C  55)      0.0006         0.025481   
    560. D(C  52,C  51,C  50,C  49)    142.6226         0.025481   
    561. D(C  41,C  51,C  50,C  55)   -142.6221         0.025481   
    562. D(C  41,C  51,C  50,C  49)     -0.0001         0.025481   
    563. D(C  52,C  51,C  41,C  42)   -142.6230         0.025479   
    564. D(C  52,C  51,C  41,C  40)      0.0004         0.025479   
    565. D(C  50,C  51,C  41,C  42)     -0.0003         0.025479   
    566. D(C  50,C  51,C  41,C  40)    142.6232         0.025479   
    567. D(C  53,C  52,C  51,C  50)     -0.0002         0.022205   
    568. D(C  53,C  52,C  51,C  41)    138.1897         0.022205   
    569. D(C  38,C  52,C  51,C  50)   -138.1899         0.022205   
    570. D(C  38,C  52,C  51,C  41)     -0.0001         0.022205   
    571. D(C  53,C  52,C  38,C  39)   -142.6230         0.025478   
    572. D(C  53,C  52,C  38,C  37)      0.0002         0.025478   
    573. D(C  51,C  52,C  38,C  39)     -0.0003         0.025478   
    574. D(C  51,C  52,C  38,C  37)    142.6229         0.025478   
    575. D(C  54,C  53,C  52,C  51)     -0.0004         0.025480   
    576. D(C  54,C  53,C  52,C  38)    142.6222         0.025480   
    577. D(C  36,C  53,C  52,C  51)   -142.6223         0.025480   
    578. D(C  36,C  53,C  52,C  38)      0.0003         0.025480   
    579. D(C  54,C  53,C  36,C  37)   -142.6227         0.025478   
    580. D(C  54,C  53,C  36,C  35)      0.0003         0.025478   
    581. D(C  52,C  53,C  36,C  37)     -0.0007         0.025478   
    582. D(C  52,C  53,C  36,C  35)    142.6224         0.025478   
    583. D(C  59,C  54,C  53,C  52)   -138.1894         0.022205   
    584. D(C  59,C  54,C  53,C  36)     -0.0003         0.022205   
    585. D(C  55,C  54,C  53,C  52)      0.0006         0.022205   
    586. D(C  55,C  54,C  53,C  36)    138.1897         0.022205   
    587. D(C  56,C  55,C  54,C  59)     -0.0002         0.025480   
    588. D(C  56,C  55,C  54,C  53)   -142.6231         0.025480   
    589. D(C  50,C  55,C  54,C  59)    142.6227         0.025480   
    590. D(C  50,C  55,C  54,C  53)     -0.0002         0.025480   
    591. D(C  56,C  55,C  50,C  51)    138.1895         0.022205   
    592. D(C  56,C  55,C  50,C  49)      0.0002         0.022205   
    593. D(C  54,C  55,C  50,C  51)     -0.0004         0.022205   
    594. D(C  54,C  55,C  50,C  49)   -138.1898         0.022205   
    595. D(C  58,C  56,C  55,C  54)     -0.0000         0.025479   
    596. D(C  58,C  56,C  55,C  50)   -142.6229         0.025479   
    597. D(C  57,C  56,C  55,C  54)    142.6223         0.025479   
    598. D(C  57,C  56,C  55,C  50)     -0.0005         0.025479   
    599. D(C  48,C  57,C  56,C  58)    138.1896         0.022207   
    600. D(C  48,C  57,C  56,C  55)      0.0004         0.022207   
    601. D(C  29,C  57,C  56,C  58)     -0.0003         0.022207   
    602. D(C  29,C  57,C  56,C  55)   -138.1895         0.022207   
    603. D(C  56,C  57,C  48,C  49)      0.0001         0.025478   
    604. D(C  56,C  57,C  48,C  47)   -142.6227         0.025478   
    605. D(C  29,C  57,C  48,C  49)    142.6231         0.025478   
    606. D(C  29,C  57,C  48,C  47)      0.0002         0.025478   
    607. D(C  56,C  57,C  29,C  30)      0.0003         0.025479   
    608. D(C  56,C  57,C  29,C  28)    142.6227         0.025479   
    609. D(C  48,C  57,C  29,C  30)   -142.6227         0.025479   
    610. D(C  48,C  57,C  29,C  28)     -0.0003         0.025479   
    611. D(C  59,C  58,C  56,C  57)   -142.6220         0.025478   
    612. D(C  59,C  58,C  56,C  55)      0.0003         0.025478   
    613. D(C  31,C  58,C  56,C  57)      0.0002         0.025478   
    614. D(C  31,C  58,C  56,C  55)    142.6224         0.025478   
    615. D(C  59,C  58,C  31,C  32)     -0.0003         0.022205   
    616. D(C  59,C  58,C  31,C  30)    138.1893         0.022205   
    617. D(C  56,C  58,C  31,C  32)   -138.1895         0.022205   
    618. D(C  56,C  58,C  31,C  30)      0.0000         0.022205   
    619. D(C  54,C  59,C  58,C  56)     -0.0004         0.025480   
    620. D(C  34,C  59,C  58,C  56)    142.6225         0.025480   
    621. D(C  34,C  59,C  58,C  31)      0.0004         0.025480   
    622. D(C  58,C  59,C  54,C  55)      0.0004         0.025479   
    623. D(C  58,C  59,C  54,C  53)    142.6232         0.025479   
    624. D(C  34,C  59,C  54,C  55)   -142.6228         0.025479   
    625. D(C  34,C  59,C  54,C  53)     -0.0000         0.025479   
    626. D(C  58,C  59,C  34,C  35)   -138.1897         0.022207   
    627. D(C  58,C  59,C  34,C  33)     -0.0003         0.022207   
    628. D(C  54,C  59,C  58,C  31)   -142.6225         0.025480   
    629. D(C  54,C  59,C  34,C  35)      0.0003         0.022207   
    630. D(C  54,C  59,C  34,C  33)    138.1897         0.022207   
    -----------------------------------------------------------------

Number of atoms                         .... 60
Number of degrees of freedom            .... 630

         *************************************************************
         *                GEOMETRY OPTIMIZATION CYCLE   1            *
         *************************************************************
---------------------------------
CARTESIAN COORDINATES (ANGSTROEM)
---------------------------------
  C      5.554980   -0.883290   -3.247430
  C      6.265320   -2.086300   -3.208070
  C      5.569650   -3.318980   -3.198610
  C      4.172420   -3.333120   -3.228640
  C      3.453020   -2.114750   -3.268510
  C      4.139920   -0.897600   -3.277840
  C      3.415070    0.013330   -2.504430
  C      4.096030    0.950200   -1.690740
  C      5.493270    0.964340   -1.660710
  C      5.894310    1.243980   -0.351380
  C      7.034570    0.604640    0.191370
  C      7.759420   -0.306300   -0.582040
  C      7.353260   -0.589510   -1.908070
  C      6.227370    0.041780   -2.443990
  C      7.376720   -1.904740   -2.380300
  C      7.806630   -2.953530   -1.532510
  C      7.119730   -4.170680   -1.523180
  C      5.994150   -4.354560   -2.361510
  C      4.859270   -5.008720   -1.874180
  C      3.733380   -4.377440   -2.410100
  C      2.569340   -4.216720   -1.620970
  C      1.859000   -3.013700   -1.660340
  C      2.303640   -1.956060   -2.489330
  C      2.280190   -0.640830   -2.017100
  C      1.811790   -0.366470   -0.709860
  C      2.484180    0.558600    0.093570
  C      3.633540    1.221110   -0.399970
  C      4.744940    1.402670    0.427800
  C      4.721160    0.924050    1.759670
  C      5.847050    0.292760    2.295590
  C      7.011090    0.132040    1.506470
  C      7.721430   -1.070970    1.545830
  C      8.183920   -1.341880    0.255060
  C      8.207670   -2.673890   -0.223190
  C      7.768630   -3.718210    0.595360
  C      7.096250   -4.643270   -0.208080
  C      5.946890   -5.305780    0.285460
  C      4.835490   -5.487350   -0.542300
  C      3.686110   -5.328650    0.236870
  C      2.545850   -4.689310   -0.305880
  C      1.821010   -3.778380    0.467530
  C      2.227170   -3.495160    1.793560
  C      2.203710   -2.179940    2.265790
  C      1.773800   -1.131140    1.418000
  C      1.372750   -1.410780    0.108680
  C      1.396510   -2.742790   -0.369570
  C      2.460700    0.086010    1.408670
  C      3.586270    0.269890    2.247000
  C      4.010770   -0.765690    3.084100
  C      3.315110   -1.998370    3.093560
  C      4.025440   -3.201390    3.132920
  C      3.353060   -4.126450    2.329480
  C      4.087160   -5.049010    1.546200
  C      5.484390   -5.034880    1.576230
  C      6.165360   -4.098000    2.389920
  C      5.440510   -3.187070    3.163330
  C      6.127410   -1.969920    3.154000
  C      5.408010   -0.751560    3.114130
  C      7.276790   -2.128620    2.374820
  C      7.300240   -3.443840    1.902590

----------------------------
CARTESIAN COORDINATES (A.U.)
----------------------------
  NO LB      ZA    FRAG     MASS         X           Y           Z
   0 C     6.0000    0    12.011   10.497391   -1.669176   -6.136753
   1 C     6.0000    0    12.011   11.839739   -3.942536   -6.062374
   2 C     6.0000    0    12.011   10.525113   -6.271963   -6.044497
   3 C     6.0000    0    12.011    7.884731   -6.298684   -6.101245
   4 C     6.0000    0    12.011    6.525262   -3.996298   -6.176589
   5 C     6.0000    0    12.011    7.823315   -1.696218   -6.194220
   6 C     6.0000    0    12.011    6.453547    0.025190   -4.732687
   7 C     6.0000    0    12.011    7.740375    1.795618   -3.195036
   8 C     6.0000    0    12.011   10.380776    1.822338   -3.138287
   9 C     6.0000    0    12.011   11.138632    2.350782   -0.664012
  10 C     6.0000    0    12.011   13.293411    1.142604    0.361637
  11 C     6.0000    0    12.011   14.663179   -0.578823   -1.099896
  12 C     6.0000    0    12.011   13.895648   -1.114012   -3.605730
  13 C     6.0000    0    12.011   11.768024    0.078953   -4.618472
  14 C     6.0000    0    12.011   13.939981   -3.599437   -4.498115
  15 C     6.0000    0    12.011   14.752393   -5.581363   -2.896024
  16 C     6.0000    0    12.011   13.454340   -7.881443   -2.878393
  17 C     6.0000    0    12.011   11.327302   -8.228926   -4.462607
  18 C     6.0000    0    12.011    9.182690   -9.465109   -3.541687
  19 C     6.0000    0    12.011    7.055066   -8.272163   -4.554429
  20 C     6.0000    0    12.011    4.855349   -7.968446   -3.063189
  21 C     6.0000    0    12.011    3.513001   -5.695068   -3.137588
  22 C     6.0000    0    12.011    4.353249   -3.696418   -4.704152
  23 C     6.0000    0    12.011    4.308935   -1.210993   -3.811767
  24 C     6.0000    0    12.011    3.423787   -0.692528   -1.341441
  25 C     6.0000    0    12.011    4.694420    1.055601    0.176822
  26 C     6.0000    0    12.011    6.866395    2.307563   -0.755834
  27 C     6.0000    0    12.011    8.966637    2.650662    0.808425
  28 C     6.0000    0    12.011    8.921699    1.746201    3.325294
  29 C     6.0000    0    12.011   11.049323    0.553236    4.338036
  30 C     6.0000    0    12.011   13.249040    0.249519    2.846816
  31 C     6.0000    0    12.011   14.591388   -2.023840    2.921195
  32 C     6.0000    0    12.011   15.465368   -2.535786    0.481994
  33 C     6.0000    0    12.011   15.510248   -5.052920   -0.421768
  34 C     6.0000    0    12.011   14.680583   -7.026399    1.125067
  35 C     6.0000    0    12.011   13.409969   -8.774509   -0.393214
  36 C     6.0000    0    12.011   11.237993  -10.026471    0.539441
  37 C     6.0000    0    12.011    9.137752  -10.369589   -1.024798
  38 C     6.0000    0    12.011    6.965738  -10.069689    0.447619
  39 C     6.0000    0    12.011    4.810959   -8.861512   -0.578029
  40 C     6.0000    0    12.011    3.441210   -7.140103    0.883504
  41 C     6.0000    0    12.011    4.208741   -6.604895    3.389337
  42 C     6.0000    0    12.011    4.164408   -4.119490    4.281723
  43 C     6.0000    0    12.011    3.351996   -2.137545    2.679632
  44 C     6.0000    0    12.011    2.594122   -2.665988    0.205375
  45 C     6.0000    0    12.011    2.639021   -5.183122   -0.698386
  46 C     6.0000    0    12.011    4.650049    0.162535    2.662001
  47 C     6.0000    0    12.011    6.777068    0.510018    4.246215
  48 C     6.0000    0    12.011    7.579257   -1.446944    5.828104
  49 C     6.0000    0    12.011    6.264650   -3.776372    5.845981
  50 C     6.0000    0    12.011    7.606979   -6.049750    5.920361
  51 C     6.0000    0    12.011    6.336365   -7.797860    4.402079
  52 C     6.0000    0    12.011    7.723613   -9.541246    2.921895
  53 C     6.0000    0    12.011   10.363995   -9.514544    2.978643
  54 C     6.0000    0    12.011   11.650842   -7.744098    4.516294
  55 C     6.0000    0    12.011   10.281074   -6.022689    5.977827
  56 C     6.0000    0    12.011   11.579127   -3.722609    5.960196
  57 C     6.0000    0    12.011   10.219658   -1.420243    5.884853
  58 C     6.0000    0    12.011   13.751140   -4.022509    4.487759
  59 C     6.0000    0    12.011   13.795454   -6.507914    3.595374

--------------------------------
INTERNAL COORDINATES (ANGSTROEM)
--------------------------------
 C      0   0   0     0.000000000000     0.00000000     0.00000000
 C      1   0   0     1.397628414601     0.00000000     0.00000000
 C      2   1   0     1.415466786223   119.99960486     0.00000000
 C      3   2   1     1.397624203211   120.00039081     0.00000000
 C      4   3   2     1.415468626922   119.99967227     0.00000000
 C      5   4   3     1.397631132095   120.00012250     0.00000000
 C      6   5   4     1.397627996106   107.99997032   217.37768201
 C      7   6   5     1.415458701128   120.00009237   142.62275340
 C      8   7   6     1.397634200390   120.00000863     0.00000000
 C      9   8   7     1.397632519692   107.99984915   217.37751143
 C     10   9   8     1.415459665868   119.99991508   142.62276503
 C     11  10   9     1.397634513813   120.00006428     0.00000000
 C     12  11  10     1.415460847427   119.99995442     0.00000000
 C     13  12  11     1.397628563890   120.00018672     0.00000000
 C      2   1   3     1.397632700855   108.00029354   217.37799666
 C     15   2   1     1.415461393433   120.00037539   142.62178817
 C     16  15   2     1.397631132095   119.99976575     0.00000000
 C      3   2   1     1.397627488425   119.99993849   221.81044310
 C     18   3   2     1.397629582150   107.99997696   142.62292892
 C     19  18   3     1.397624047053   108.00001136     0.00000000
 C     20  19  18     1.415466777039   119.99948381   217.37754896
 C     21  20  19     1.397637303774   119.99969618   138.18960752
 C      5   4   3     1.397633132442   119.99960790   221.81019360
 C      7   6   5     1.397629582150   108.00019530     0.00000000
 C     24   7   6     1.415467550741   120.00033653   142.62254712
 C     25  24   7     1.397627483237   119.99941098     0.00000000
 C      8   7   6     1.397632434190   120.00038150   221.81038152
 C     10   9   8     1.397624908693   108.00040646     0.00000000
 C     28  10   9     1.415457625540   120.00022942   142.62301365
 C     29  28  10     1.397628563890   120.00027162     0.00000000
 C     11  10   9     1.397637320767   119.99998919   221.80998541
 C     31  11  10     1.397628414601   107.99997514   142.62263231
 C     12  11  10     1.397627488425   108.00010136   217.37754313
 C     16  15   2     1.397623151497   120.00050388   221.81059186
 C     34  16  15     1.397635319567   108.00042845   142.62285438
 C     35  34  16     1.397621802062   107.99942628     0.00000000
 C     36  35  34     1.415460928920   119.99996230   217.37720395
 C     37  36  35     1.397628077315   120.00046840   138.18982465
 C     38  37  36     1.397628692930   108.00052433   217.37792534
 C     21  20  19     1.397624697943   120.00066696     0.00000000
 C     40  21  20     1.397622809845   108.00045729   142.62249888
 C     41  40  21     1.415462848294   120.00053043   217.37782212
 C     42  41  40     1.397624839826   120.00054256   138.19004999
 C     43  42  41     1.415468802977   119.99964462     0.00000000
 C     25  24   7     1.397621990847   120.00044766   221.81031447
 C     22  21  20     1.397632434190   107.99966279   217.37710247
 C     44  43  42     1.397631132095   119.99999963   221.81054259
 C     29  28  10     1.397637702196   119.99978192   221.80999534
 C     48  29  28     1.397627488425   107.99973788   142.62265876
 C     43  42  41     1.397633999944   108.00015333   217.37728163
 C     50  43  42     1.397631939711   107.99945950     0.00000000
 C     51  50  43     1.397621802062   108.00027425     0.00000000
 C     39  38  37     1.397635389148   107.99952209     0.00000000
 C     53  39  38     1.397624102075   108.00016643     0.00000000
 C     54  53  39     1.415470130875   119.99991147   142.62215014
 C     55  54  53     1.397627996106   119.99988748     0.00000000
 C     56  55  54     1.397631132095   107.99997032   217.37693748
 C     30  29  28     1.397629462912   108.00019826   217.37768661
 C     57  56  55     1.397634267897   107.99970474     0.00000000
 C     59  57  56     1.397624672006   108.00020344     0.00000000

---------------------------
INTERNAL COORDINATES (A.U.)
---------------------------
 C      0   0   0     0.000000000000     0.00000000     0.00000000
 C      1   0   0     2.641134940582     0.00000000     0.00000000
 C      2   1   0     2.674844577623   119.99960486     0.00000000
 C      3   2   1     2.641126982208   120.00039081     0.00000000
 C      4   3   2     2.674848056040   119.99967227     0.00000000
 C      5   4   3     2.641140075901   120.00012250     0.00000000
 C      6   5   4     2.641134149742   107.99997032   217.37768201
 C      7   6   5     2.674829299009   120.00009237   142.62275340
 C      8   7   6     2.641145874139   120.00000863     0.00000000
 C      9   8   7     2.641142698080   107.99984915   217.37751143
 C     10   9   8     2.674831122103   119.99991508   142.62276503
 C     11  10   9     2.641146466422   120.00006428     0.00000000
 C     12  11  10     2.674833354926   119.99995442     0.00000000
 C     13  12  11     2.641135222697   120.00018672     0.00000000
 C      2   1   3     2.641143040429   108.00029354   217.37799666
 C     15   2   1     2.674834386727   120.00037539   142.62178817
 C     16  15   2     2.641140075901   119.99976575     0.00000000
 C      3   2   1     2.641133190363   119.99993849   221.81044310
 C     18   3   2     2.641137146930   107.99997696   142.62292892
 C     19  18   3     2.641126687112   108.00001136     0.00000000
 C     20  19  18     2.674844560267   119.99948381   217.37754896
 C     21  20  19     2.641151738685   119.99969618   138.18960752
 C      5   4   3     2.641143856010   119.99960790   221.81019360
 C      7   6   5     2.641137146930   108.00019530     0.00000000
 C     24   7   6     2.674846022352   120.00033653   142.62254712
 C     25  24   7     2.641133180560   119.99941098     0.00000000
 C      8   7   6     2.641142536505   120.00038150   221.81038152
 C     10   9   8     2.641128315377   108.00040646     0.00000000
 C     28  10   9     2.674827266442   120.00022942   142.62301365
 C     29  28  10     2.641135222697   120.00027162     0.00000000
 C     11  10   9     2.641151770797   119.99998919   221.80998541
 C     31  11  10     2.641134940582   107.99997514   142.62263231
 C     12  11  10     2.641133190363   108.00010136   217.37754313
 C     16  15   2     2.641124994757   120.00050388   221.81059186
 C     34  16  15     2.641147989076   108.00042845   142.62285438
 C     35  34  16     2.641122444695   107.99942628     0.00000000
 C     36  35  34     2.674833508925   119.99996230   217.37720395
 C     37  36  35     2.641134303205   120.00046840   138.18982465
 C     38  37  36     2.641135466547   108.00052433   217.37792534
 C     21  20  19     2.641127917117   120.00066696     0.00000000
 C     40  21  20     2.641124349129   108.00045729   142.62249888
 C     41  40  21     2.674837136015   120.00053043   217.37782212
 C     42  41  40     2.641128185238   120.00054256   138.19004999
 C     43  42  41     2.674848388735   119.99964462     0.00000000
 C     25  24   7     2.641122801447   120.00044766   221.81031447
 C     22  21  20     2.641142536505   107.99966279   217.37710247
 C     44  43  42     2.641140075901   119.99999963   221.81054259
 C     29  28  10     2.641152491594   119.99978192   221.80999534
 C     48  29  28     2.641133190363   107.99973788   142.62265876
 C     43  42  41     2.641145495351   108.00015333   217.37728163
 C     50  43  42     2.641141602075   107.99945950     0.00000000
 C     51  50  43     2.641122444695   108.00027425     0.00000000
 C     39  38  37     2.641148120567   107.99952209     0.00000000
 C     53  39  38     2.641126791089   108.00016643     0.00000000
 C     54  53  39     2.674850898100   119.99991147   142.62215014
 C     55  54  53     2.641134149742   119.99988748     0.00000000
 C     56  55  54     2.641140075901   107.99997032   217.37693748
 C     30  29  28     2.641136921603   108.00019826   217.37768661
 C     57  56  55     2.641146001709   107.99970474     0.00000000
 C     59  57  56     2.641127868103   108.00020344     0.00000000

---------------------
BASIS SET INFORMATION
---------------------
There are 1 groups of distinct atoms

 Group   1 Type C   : 11s6p2d1f contracted to 5s3p2d1f pattern {62111/411/11/1}

Atom   0C    basis set group =>   1
Atom   1C    basis set group =>   1
Atom   2C    basis set group =>   1
Atom   3C    basis set group =>   1
Atom   4C    basis set group =>   1
Atom   5C    basis set group =>   1
Atom   6C    basis set group =>   1
Atom   7C    basis set group =>   1
Atom   8C    basis set group =>   1
Atom   9C    basis set group =>   1
Atom  10C    basis set group =>   1
Atom  11C    basis set group =>   1
Atom  12C    basis set group =>   1
Atom  13C    basis set group =>   1
Atom  14C    basis set group =>   1
Atom  15C    basis set group =>   1
Atom  16C    basis set group =>   1
Atom  17C    basis set group =>   1
Atom  18C    basis set group =>   1
Atom  19C    basis set group =>   1
Atom  20C    basis set group =>   1
Atom  21C    basis set group =>   1
Atom  22C    basis set group =>   1
Atom  23C    basis set group =>   1
Atom  24C    basis set group =>   1
Atom  25C    basis set group =>   1
Atom  26C    basis set group =>   1
Atom  27C    basis set group =>   1
Atom  28C    basis set group =>   1
Atom  29C    basis set group =>   1
Atom  30C    basis set group =>   1
Atom  31C    basis set group =>   1
Atom  32C    basis set group =>   1
Atom  33C    basis set group =>   1
Atom  34C    basis set group =>   1
Atom  35C    basis set group =>   1
Atom  36C    basis set group =>   1
Atom  37C    basis set group =>   1
Atom  38C    basis set group =>   1
Atom  39C    basis set group =>   1
Atom  40C    basis set group =>   1
Atom  41C    basis set group =>   1
Atom  42C    basis set group =>   1
Atom  43C    basis set group =>   1
Atom  44C    basis set group =>   1
Atom  45C    basis set group =>   1
Atom  46C    basis set group =>   1
Atom  47C    basis set group =>   1
Atom  48C    basis set group =>   1
Atom  49C    basis set group =>   1
Atom  50C    basis set group =>   1
Atom  51C    basis set group =>   1
Atom  52C    basis set group =>   1
Atom  53C    basis set group =>   1
Atom  54C    basis set group =>   1
Atom  55C    basis set group =>   1
Atom  56C    basis set group =>   1
Atom  57C    basis set group =>   1
Atom  58C    basis set group =>   1
Atom  59C    basis set group =>   1
---------------------------------
AUXILIARY/J BASIS SET INFORMATION
---------------------------------
There are 1 groups of distinct atoms

 Group   1 Type C   : 12s5p4d2f1g contracted to 6s4p3d1f1g pattern {711111/2111/211/2/1}

Atom   0C    basis set group =>   1
Atom   1C    basis set group =>   1
Atom   2C    basis set group =>   1
Atom   3C    basis set group =>   1
Atom   4C    basis set group =>   1
Atom   5C    basis set group =>   1
Atom   6C    basis set group =>   1
Atom   7C    basis set group =>   1
Atom   8C    basis set group =>   1
Atom   9C    basis set group =>   1
Atom  10C    basis set group =>   1
Atom  11C    basis set group =>   1
Atom  12C    basis set group =>   1
Atom  13C    basis set group =>   1
Atom  14C    basis set group =>   1
Atom  15C    basis set group =>   1
Atom  16C    basis set group =>   1
[...]
      px      :     1.034578
      py      :     0.982242
      dz2     :     0.026234  d :     0.111530
      dxz     :     0.036224
      dyz     :     0.015830
      dx2y2   :     0.015876
      dxy     :     0.017366
 39 C s       :     2.845763  s :     2.845763
      pz      :     1.025889  p :     3.042617
      px      :     1.019376
      py      :     0.997351
      dz2     :     0.026457  d :     0.111543
      dxz     :     0.025101
      dyz     :     0.026754
      dx2y2   :     0.016947
      dxy     :     0.016283
 40 C s       :     2.845856  s :     2.845856
      pz      :     1.044813  p :     3.042810
      px      :     0.987491
      py      :     1.010506
      dz2     :     0.024947  d :     0.111519
      dxz     :     0.024334
      dyz     :     0.036034
      dx2y2   :     0.012830
      dxy     :     0.013375
 41 C s       :     2.845755  s :     2.845755
      pz      :     1.031916  p :     3.042727
      px      :     0.996574
      py      :     1.014236
      dz2     :     0.027784  d :     0.111501
      dxz     :     0.017933
      dyz     :     0.024653
      dx2y2   :     0.023781
      dxy     :     0.017351
 42 C s       :     2.845857  s :     2.845857
      pz      :     1.009661  p :     3.042966
      px      :     0.996004
      py      :     1.037301
      dz2     :     0.017298  d :     0.111281
      dxz     :     0.016392
      dyz     :     0.028687
      dx2y2   :     0.029666
      dxy     :     0.019238
 43 C s       :     2.845836  s :     2.845836
      pz      :     1.022264  p :     3.042332
      px      :     0.986144
      py      :     1.033925
      dz2     :     0.030675  d :     0.111446
      dxz     :     0.014641
      dyz     :     0.027056
      dx2y2   :     0.016537
      dxy     :     0.022536
 44 C s       :     2.845903  s :     2.845903
      pz      :     1.025470  p :     3.042724
      px      :     0.972280
      py      :     1.044974
      dz2     :     0.026185  d :     0.111333
      dxz     :     0.016647
      dyz     :     0.035334
      dx2y2   :     0.016884
      dxy     :     0.016283
 45 C s       :     2.845915  s :     2.845915
      pz      :     1.025060  p :     3.042818
      px      :     0.973200
      py      :     1.044558
      dz2     :     0.025401  d :     0.111327
      dxz     :     0.017386
      dyz     :     0.035314
      dx2y2   :     0.017285
      dxy     :     0.015940
 46 C s       :     2.845852  s :     2.845852
      pz      :     1.022692  p :     3.042636
      px      :     1.016819
      py      :     1.003125
      dz2     :     0.030824  d :     0.111321
      dxz     :     0.022065
      dyz     :     0.019290
      dx2y2   :     0.020712
      dxy     :     0.018430
 47 C s       :     2.845798  s :     2.845798
      pz      :     1.009872  p :     3.043031
      px      :     1.033127
      py      :     1.000032
      dz2     :     0.017293  d :     0.111383
      dxz     :     0.028370
      dyz     :     0.017066
      dx2y2   :     0.023392
      dxy     :     0.025262
 48 C s       :     2.845722  s :     2.845722
      pz      :     0.979962  p :     3.042648
      px      :     1.026376
      py      :     1.036311
      dz2     :     0.012874  d :     0.111502
      dxz     :     0.014067
      dyz     :     0.019386
      dx2y2   :     0.036624
      dxy     :     0.028552
 49 C s       :     2.845764  s :     2.845764
      pz      :     0.980047  p :     3.042874
      px      :     1.019962
      py      :     1.042865
      dz2     :     0.012684  d :     0.111421
      dxz     :     0.017018
      dyz     :     0.016422
      dx2y2   :     0.030100
      dxy     :     0.035196
 50 C s       :     2.845747  s :     2.845747
      pz      :     0.978713  p :     3.042746
      px      :     1.047490
      py      :     1.016543
      dz2     :     0.012157  d :     0.111548
      dxz     :     0.018110
      dyz     :     0.015336
      dx2y2   :     0.031198
      dxy     :     0.034748
 51 C s       :     2.845659  s :     2.845659
      pz      :     1.006677  p :     3.042724
      px      :     1.021550
      py      :     1.014496
      dz2     :     0.016263  d :     0.111614
      dxz     :     0.022804
      dyz     :     0.022378
      dx2y2   :     0.020764
      dxy     :     0.029406
 52 C s       :     2.845609  s :     2.845609
      pz      :     1.019057  p :     3.042449
      px      :     1.027627
      py      :     0.995765
      dz2     :     0.030450  d :     0.111725
      dxz     :     0.024518
      dyz     :     0.015754
      dx2y2   :     0.022443
      dxy     :     0.018561
 53 C s       :     2.845608  s :     2.845608
      pz      :     1.019424  p :     3.042748
      px      :     1.026711
      py      :     0.996613
      dz2     :     0.029670  d :     0.111645
      dxz     :     0.025171
      dyz     :     0.016030
      dx2y2   :     0.022562
      dxy     :     0.018212
 54 C s       :     2.845679  s :     2.845679
      pz      :     1.006017  p :     3.042585
      px      :     1.021213
      py      :     1.015354
      dz2     :     0.016283  d :     0.111577
      dxz     :     0.022263
      dyz     :     0.021935
      dx2y2   :     0.020676
      dxy     :     0.030420
 55 C s       :     2.845717  s :     2.845717
      pz      :     0.978089  p :     3.042736
      px      :     1.048059
      py      :     1.016588
      dz2     :     0.011611  d :     0.111613
      dxz     :     0.018719
      dyz     :     0.014607
      dx2y2   :     0.031504
      dxy     :     0.035172
 56 C s       :     2.845780  s :     2.845780
      pz      :     0.978393  p :     3.042951
      px      :     1.022149
      py      :     1.042410
      dz2     :     0.011735  d :     0.111420
      dxz     :     0.017221
      dyz     :     0.016034
      dx2y2   :     0.031242
      dxy     :     0.035187
 57 C s       :     2.845746  s :     2.845746
      pz      :     0.979285  p :     3.042746
      px      :     1.027845
      py      :     1.035616
      dz2     :     0.012458  d :     0.111454
      dxz     :     0.014579
      dyz     :     0.018812
      dx2y2   :     0.036503
      dxy     :     0.029101
 58 C s       :     2.845859  s :     2.845859
      pz      :     1.007061  p :     3.042861
      px      :     0.998299
      py      :     1.037501
      dz2     :     0.016562  d :     0.111279
      dxz     :     0.015854
      dyz     :     0.028166
      dx2y2   :     0.031008
      dxy     :     0.019689
 59 C s       :     2.845837  s :     2.845837
      pz      :     1.029577  p :     3.042846
      px      :     0.998444
      py      :     1.014825
      dz2     :     0.027170  d :     0.111421
      dxz     :     0.017464
      dyz     :     0.024075
      dx2y2   :     0.024169
      dxy     :     0.018543


                      *****************************
                      * MAYER POPULATION ANALYSIS *
                      *****************************

  NA   - Mulliken gross atomic population
  ZA   - Total nuclear charge
  QA   - Mulliken gross atomic charge
  VA   - Mayer's total valence
  BVA  - Mayer's bonded valence
  FA   - Mayer's free valence

  ATOM       NA         ZA         QA         VA         BVA        FA
  0 C      5.9989     6.0000     0.0011     3.9906     3.9906    -0.0000
  1 C      5.9997     6.0000     0.0003     3.9917     3.9917    -0.0000
  2 C      5.9992     6.0000     0.0008     3.9927     3.9927    -0.0000
  3 C      6.0001     6.0000    -0.0001     3.9938     3.9938    -0.0000
  4 C      6.0005     6.0000    -0.0005     3.9922     3.9922    -0.0000
  5 C      5.9985     6.0000     0.0015     3.9904     3.9904    -0.0000
  6 C      6.0002     6.0000    -0.0002     3.9944     3.9944    -0.0000
  7 C      5.9992     6.0000     0.0008     3.9917     3.9917    -0.0000
  8 C      5.9990     6.0000     0.0010     3.9934     3.9934    -0.0000
  9 C      5.9997     6.0000     0.0003     3.9917     3.9917    -0.0000
 10 C      6.0023     6.0000    -0.0023     3.9948     3.9948    -0.0000
 11 C      5.9999     6.0000     0.0001     3.9922     3.9922    -0.0000
 12 C      5.9984     6.0000     0.0016     3.9890     3.9890    -0.0000
 13 C      6.0003     6.0000    -0.0003     3.9942     3.9942    -0.0000
 14 C      6.0033     6.0000    -0.0033     3.9950     3.9950    -0.0000
 15 C      5.9991     6.0000     0.0009     3.9926     3.9926    -0.0000
 16 C      5.9989     6.0000     0.0011     3.9908     3.9908    -0.0000
 17 C      6.0014     6.0000    -0.0014     3.9940     3.9940    -0.0000
 18 C      5.9969     6.0000     0.0031     3.9903     3.9903    -0.0000
 19 C      6.0014     6.0000    -0.0014     3.9937     3.9937    -0.0000
 20 C      5.9986     6.0000     0.0014     3.9904     3.9904    -0.0000
 21 C      5.9996     6.0000     0.0004     3.9928     3.9928    -0.0000
 22 C      6.0025     6.0000    -0.0025     3.9953     3.9953    -0.0000
 23 C      5.9998     6.0000     0.0002     3.9898     3.9898    -0.0000
 24 C      5.9989     6.0000     0.0011     3.9920     3.9920    -0.0000
 25 C      6.0020     6.0000    -0.0020     3.9954     3.9954    -0.0000
 26 C      5.9992     6.0000     0.0008     3.9922     3.9922    -0.0000
 27 C      6.0015     6.0000    -0.0015     3.9917     3.9917    -0.0000
 28 C      5.9970     6.0000     0.0030     3.9907     3.9907    -0.0000
 29 C      6.0014     6.0000    -0.0014     3.9940     3.9940    -0.0000
 30 C      5.9985     6.0000     0.0015     3.9904     3.9904    -0.0000
 31 C      5.9997     6.0000     0.0003     3.9927     3.9927    -0.0000
 32 C      5.9995     6.0000     0.0005     3.9904     3.9904    -0.0000
 33 C      6.0007     6.0000    -0.0007     3.9910     3.9910    -0.0000
 34 C      5.9996     6.0000     0.0004     3.9911     3.9911    -0.0000
 35 C      6.0030     6.0000    -0.0030     3.9946     3.9946    -0.0000
 36 C      5.9991     6.0000     0.0009     3.9913     3.9913    -0.0000
 37 C      6.0016     6.0000    -0.0016     3.9911     3.9911    -0.0000
 38 C      5.9998     6.0000     0.0002     3.9911     3.9911    -0.0000
 39 C      6.0025     6.0000    -0.0025     3.9947     3.9947    -0.0000
 40 C      5.9999     6.0000     0.0001     3.9921     3.9921    -0.0000
 41 C      5.9988     6.0000     0.0012     3.9889     3.9889    -0.0000
 42 C      6.0034     6.0000    -0.0034     3.9952     3.9952    -0.0000
 43 C      5.9982     6.0000     0.0018     3.9931     3.9931    -0.0000
 44 C      6.0001     6.0000    -0.0001     3.9918     3.9918    -0.0000
 45 C      5.9997     6.0000     0.0003     3.9908     3.9908    -0.0000
 46 C      5.9984     6.0000     0.0016     3.9918     3.9918    -0.0000
 47 C      6.0013     6.0000    -0.0013     3.9945     3.9945    -0.0000
 48 C      5.9991     6.0000     0.0009     3.9930     3.9930    -0.0000
 49 C      5.9999     6.0000     0.0001     3.9917     3.9917    -0.0000
 50 C      5.9994     6.0000     0.0006     3.9905     3.9905    -0.0000
 51 C      6.0008     6.0000    -0.0008     3.9939     3.9939    -0.0000
 52 C      5.9992     6.0000     0.0008     3.9926     3.9926    -0.0000
 53 C      5.9996     6.0000     0.0004     3.9911     3.9911    -0.0000
 54 C      6.0002     6.0000    -0.0002     3.9938     3.9938    -0.0000
 55 C      5.9983     6.0000     0.0017     3.9899     3.9899    -0.0000
 56 C      6.0003     6.0000    -0.0003     3.9920     3.9920    -0.0000
 57 C      6.0001     6.0000    -0.0001     3.9939     3.9939    -0.0000
 58 C      6.0023     6.0000    -0.0023     3.9949     3.9949    -0.0000
 59 C      5.9998     6.0000     0.0002     3.9892     3.9892    -0.0000

  Mayer bond orders larger than 0.100000
B(  0-C ,  1-C ) :   1.1815 B(  0-C ,  5-C ) :   1.4753 B(  0-C , 13-C ) :   1.1836 
B(  1-C ,  2-C ) :   1.4765 B(  1-C , 14-C ) :   1.1842 B(  2-C ,  3-C ) :   1.1836 
B(  2-C , 17-C ) :   1.1817 B(  3-C ,  4-C ) :   1.4769 B(  3-C , 19-C ) :   1.1820 
B(  4-C ,  5-C ) :   1.1810 B(  4-C , 22-C ) :   1.1841 B(  5-C ,  6-C ) :   1.1839 
B(  6-C ,  7-C ) :   1.4770 B(  6-C , 23-C ) :   1.1822 B(  7-C ,  8-C ) :   1.1810 
B(  7-C , 26-C ) :   1.1831 B(  8-C ,  9-C ) :   1.1836 B(  8-C , 13-C ) :   1.4775 
B(  9-C , 10-C ) :   1.4762 B(  9-C , 27-C ) :   1.1827 B( 10-C , 11-C ) :   1.1848 
B( 10-C , 30-C ) :   1.1820 B( 11-C , 12-C ) :   1.4767 B( 11-C , 32-C ) :   1.1810 
B( 12-C , 13-C ) :   1.1817 B( 12-C , 14-C ) :   1.1817 B( 14-C , 15-C ) :   1.4771 
B( 15-C , 16-C ) :   1.1809 B( 15-C , 33-C ) :   1.1835 B( 16-C , 17-C ) :   1.4775 
B( 16-C , 35-C ) :   1.1822 B( 17-C , 18-C ) :   1.1826 B( 18-C , 19-C ) :   1.1826 
B( 18-C , 37-C ) :   1.4752 B( 19-C , 20-C ) :   1.4773 B( 20-C , 21-C ) :   1.1811 
B( 20-C , 39-C ) :   1.1820 B( 21-C , 22-C ) :   1.4770 B( 21-C , 45-C ) :   1.1834 
B( 22-C , 23-C ) :   1.1822 B( 23-C , 24-C ) :   1.4762 B( 24-C , 25-C ) :   1.1847 
B( 24-C , 44-C ) :   1.1814 B( 25-C , 26-C ) :   1.4760 B( 25-C , 46-C ) :   1.1821 
B( 26-C , 27-C ) :   1.1833 B( 27-C , 28-C ) :   1.4753 B( 28-C , 29-C ) :   1.1827 
B( 28-C , 47-C ) :   1.1826 B( 29-C , 30-C ) :   1.4773 B( 29-C , 57-C ) :   1.1820 
B( 30-C , 31-C ) :   1.1811 B( 31-C , 32-C ) :   1.1833 B( 31-C , 58-C ) :   1.4770 
B( 32-C , 33-C ) :   1.4767 B( 33-C , 34-C ) :   1.1813 B( 34-C , 35-C ) :   1.1850 
B( 34-C , 59-C ) :   1.4761 B( 35-C , 36-C ) :   1.4757 B( 36-C , 37-C ) :   1.1833 
B( 36-C , 53-C ) :   1.1832 B( 37-C , 38-C ) :   1.1826 B( 38-C , 39-C ) :   1.4761 
B( 38-C , 52-C ) :   1.1836 B( 39-C , 40-C ) :   1.1849 B( 40-C , 41-C ) :   1.4766 
B( 40-C , 45-C ) :   1.1810 B( 41-C , 42-C ) :   1.1816 B( 41-C , 51-C ) :   1.1819 
B( 42-C , 43-C ) :   1.4772 B( 42-C , 49-C ) :   1.1842 B( 43-C , 44-C ) :   1.1834 
B( 43-C , 46-C ) :   1.1808 B( 44-C , 45-C ) :   1.4768 B( 46-C , 47-C ) :   1.4778 
B( 47-C , 48-C ) :   1.1817 B( 48-C , 49-C ) :   1.4765 B( 48-C , 57-C ) :   1.1837 
B( 49-C , 50-C ) :   1.1816 B( 50-C , 51-C ) :   1.1837 B( 50-C , 55-C ) :   1.4752 
B( 51-C , 52-C ) :   1.4774 B( 52-C , 53-C ) :   1.1809 B( 53-C , 54-C ) :   1.4769 
B( 54-C , 55-C ) :   1.1838 B( 54-C , 59-C ) :   1.1822 B( 55-C , 56-C ) :   1.1810 
B( 56-C , 57-C ) :   1.4769 B( 56-C , 58-C ) :   1.1839 B( 58-C , 59-C ) :   1.1821 


-------
TIMINGS
-------

Total SCF time: 0 days 0 hours 11 min 19 sec 

Total time                  ....     679.058 sec
Sum of individual times     ....     675.318 sec  ( 99.4%)

Fock matrix formation       ....     663.090 sec  ( 97.6%)
  XC integration            ....       8.236 sec  (  1.2% of F)
    Basis function eval.    ....       1.658 sec  ( 20.1% of XC)
    Density eval.           ....       3.078 sec  ( 37.4% of XC)
    XC-Functional eval.     ....       0.310 sec  (  3.8% of XC)
    XC-Potential eval.      ....       2.733 sec  ( 33.2% of XC)
Diagonalization             ....       0.996 sec  (  0.1%)
Density matrix formation    ....       0.110 sec  (  0.0%)
Population analysis         ....       0.803 sec  (  0.1%)
Initial guess               ....       1.008 sec  (  0.1%)
Orbital Transformation      ....       0.000 sec  (  0.0%)
Orbital Orthonormalization  ....       0.927 sec  (  0.1%)
DIIS solution               ....       0.363 sec  (  0.1%)
SOSCF solution              ....       2.491 sec  (  0.4%)
Grid generation             ....       6.458 sec  (  1.0%)


-------------------------------------------------------------------------------
                          DFT DISPERSION CORRECTION                            
                                                                               
                              DFTD3 V3.1  Rev 1                                
                              USING zero damping                               
-------------------------------------------------------------------------------
The omegaB97X-D3 functional is recognized. Fit by Chai et al.
Active option DFTDOPT                   ...         3   

molecular C6(AA) [au] = 84213.794083 


            DFT-D V3
 parameters
 s6 scaling factor         :     1.0000 
 rs6 scaling factor        :     1.2810 
 s8 scaling factor         :     1.0000 
 rs8 scaling factor        :     1.0940 
 Damping factor alpha6     :    14.0000 
 Damping factor alpha8     :    16.0000 
 ad hoc parameters k1-k3   :    16.0000     1.3333    -4.0000 

 Edisp/kcal,au: -37.630957686224  -0.059968741872 
 E6   /kcal   : -18.573370070 
 E8   /kcal   : -19.057587617 
 % E8         :  50.643376593 

-------------------------   ----------------
Dispersion correction           -0.059968742
-------------------------   ----------------


-------------------------   --------------------
FINAL SINGLE POINT ENERGY     -2283.959012049806
-------------------------   --------------------

                                *** OPTIMIZATION RUN DONE ***

                            ***************************************
                            *     ORCA property calculations      *
                            ***************************************

                                    ---------------------
                                    Active property flags
                                    ---------------------
   (+) Dipole Moment


------------------------------------------------------------------------------
                       ORCA ELECTRIC PROPERTIES CALCULATION
------------------------------------------------------------------------------

Dipole Moment Calculation                       ... on
Quadrupole Moment Calculation                   ... off
Polarizability Calculation                      ... off
GBWName                                         ... C60.gbw
Electron density file                           ... C60.scfp
The origin for moment calculation is the CENTER OF MASS  = ( 9.052192, -3.859457 -0.108195)

-------------
DIPOLE MOMENT
-------------
                                X             Y             Z
Electronic contribution:     -0.00191       0.00452      -0.00103
Nuclear contribution   :     -0.00000       0.00000       0.00000
                        -----------------------------------------
Total Dipole Moment    :     -0.00191       0.00452      -0.00103
                        -----------------------------------------
Magnitude (a.u.)       :      0.00501
Magnitude (Debye)      :      0.01274



--------------------
Rotational spectrum 
--------------------
 
Rotational constants in cm-1:     0.002797     0.002797     0.002796 
Rotational constants in MHz :    83.844878    83.839172    83.822037 

 Dipole components along the rotational axes: 
x,y,z [a.u.] :    -0.001819     0.002031    -0.004208 
x,y,z [Debye]:    -0.004623     0.005161    -0.010695 

 
--------------------------------------------------------------------------
[[59481,1],11]: A high-performance Open MPI point-to-point messaging module
was unable to find any relevant network interfaces:

Module: OpenFabrics (openib)
  Host: compute-1-14

Another transport will be used instead, although this may result in
lower performance.

NOTE: You can disable this warning by setting the MCA parameter
btl_base_warn_component_unused to 0.
--------------------------------------------------------------------------
[compute-1-14.local:27356] 11 more processes have sent help message help-mpi-btl-base.txt / btl:no-nics
[compute-1-14.local:27356] Set MCA parameter "orte_base_help_aggregate" to 0 to see all help / error messages

Timings for individual modules:

Sum of individual times         ...    13982.577 sec (= 233.043 min)
GTO integral calculation        ...       16.032 sec (=   0.267 min)   0.1 %
SCF iterations                  ...     9081.878 sec (= 151.365 min)  65.0 %
SCF Gradient evaluation         ...     4874.678 sec (=  81.245 min)  34.9 %
Geometry relaxation             ...        9.989 sec (=   0.166 min)   0.1 %
                             ****ORCA TERMINATED NORMALLY****
TOTAL RUN TIME: 0 days 3 hours 53 minutes 11 seconds 477 msec
