Warning: no access to tty (Bad file descriptor).
Thus no job control in this shell.

                                 *****************
                                 * O   R   C   A *
                                 *****************

           --- An Ab Initio, DFT and Semiempirical electronic structure package ---

                  #######################################################
                  #                        -***-                        #
                  #          Department of theory and spectroscopy      #
                  #               Directorship: Frank Neese             #
                  #        Max Planck Institute fuer Kohlenforschung    #
                  #                Kaiser Wilhelm Platz 1               #
                  #                 D-45470 Muelheim/Ruhr               #
                  #                      Germany                        #
                  #                                                     #
                  #                  All rights reserved                #
                  #                        -***-                        #
                  #######################################################


                         Program Version 4.2.1 -  RELEASE  -


 With contributions from (in alphabetic order):
   Daniel Aravena         : Magnetic Suceptibility
   Michael Atanasov       : Ab Initio Ligand Field Theory (pilot matlab implementation)
   Alexander A. Auer      : GIAO ZORA, VPT2
   Ute Becker             : Parallelization
   Giovanni Bistoni       : ED, misc. LED, open-shell LED, HFLD
   Martin Brehm           : Molecular dynamics
   Dmytro Bykov           : SCF Hessian
   Vijay G. Chilkuri      : MRCI spin determinant printing, contributions to CSF-ICE
   Dipayan Datta          : RHF DLPNO-CCSD density
   Achintya Kumar Dutta   : EOM-CC, STEOM-CC
   Dmitry Ganyushin       : Spin-Orbit,Spin-Spin,Magnetic field MRCI
   Miquel Garcia          : C-PCM Hessian, Gaussian charge scheme
   Yang Guo               : DLPNO-NEVPT2, CIM, IAO-localization
   Andreas Hansen         : Spin unrestricted coupled pair/coupled cluster methods
   Benjamin Helmich-Paris : CASSCF linear response (MC-RPA)
   Lee Huntington         : MR-EOM, pCC
   Robert Izsak           : Overlap fitted RIJCOSX, COSX-SCS-MP3, EOM
   Christian Kollmar      : KDIIS, OOCD, Brueckner-CCSD(T), CCSD density
   Simone Kossmann        : Meta GGA functionals, TD-DFT gradient, OOMP2, MP2 Hessian
   Martin Krupicka        : AUTO-CI
   Lucas Lang             : DCDCAS
   Dagmar Lenk            : GEPOL surface, SMD
   Dimitrios Liakos       : Extrapolation schemes; Compound Job, initial MDCI parallelization
   Dimitrios Manganas     : Further ROCIS development; embedding schemes
   Dimitrios Pantazis     : SARC Basis sets
   Taras Petrenko         : DFT Hessian,TD-DFT gradient, ASA, ECA, R-Raman, ABS, FL, XAS/XES, NRVS
   Peter Pinski           : DLPNO-MP2, DLPNO-MP2 Gradient
   Christoph Reimann      : Effective Core Potentials
   Marius Retegan         : Local ZFS, SOC
   Christoph Riplinger    : Optimizer, TS searches, QM/MM, DLPNO-CCSD(T), (RO)-DLPNO pert. Triples
   Tobias Risthaus        : Range-separated hybrids, TD-DFT gradient, RPA, STAB
   Michael Roemelt        : Original ROCIS implementation
   Masaaki Saitow         : Open-shell DLPNO-CCSD energy and density
   Barbara Sandhoefer     : DKH picture change effects
   Avijit Sen             : IP-ROCIS
   Kantharuban Sivalingam : CASSCF convergence, NEVPT2, FIC-MRCI
   Bernardo de Souza      : ESD, SOC TD-DFT
   Georgi Stoychev        : AutoAux, RI-MP2 NMR
   Willem Van den Heuvel  : Paramagnetic NMR
   Boris Wezisla          : Elementary symmetry handling
   Frank Wennmohs         : Technical directorship


 We gratefully acknowledge several colleagues who have allowed us to
 interface, adapt or use parts of their codes:
   Stefan Grimme, W. Hujo, H. Kruse,             : VdW corrections, initial TS optimization,
                  C. Bannwarth                     DFT functionals, gCP, sTDA/sTD-DF
   Ed Valeev, F. Pavosevic, A. Kumar             : LibInt (2-el integral package), F12 methods
   Garnet Chan, S. Sharma, J. Yang, R. Olivares  : DMRG
   Ulf Ekstrom                                   : XCFun DFT Library
   Mihaly Kallay                                 : mrcc  (arbitrary order and MRCC methods)
   Andreas Klamt, Michael Diedenhofen            : otool_cosmo (COSMO solvation model)
   Jiri Pittner, Ondrej Demel                    : Mk-CCSD
   Frank Weinhold                                : gennbo (NPA and NBO analysis)
   Christopher J. Cramer and Donald G. Truhlar   : smd solvation model
   Lars Goerigk                                  : TD-DFT with DH, B97 family of functionals
   V. Asgeirsson, H. Jonsson                     : NEB implementation
   FAccTs GmbH                                   : IRC, NEB, NEB-TS, Multilevel, MM, QM/MM, CI optimization
   S Lehtola, MJT Oliveira, MAL Marques          : LibXC Library


 Your calculation uses the libint2 library for the computation of 2-el integrals
 For citations please refer to: http://libint.valeyev.net

 Your ORCA version has been built with support for libXC version: 4.2.3
 For citations please refer to: https://tddft.org/programs/libxc/

 This ORCA versions uses:
   CBLAS   interface :  Fast vector & matrix operations
   LAPACKE interface :  Fast linear algebra routines
   SCALAPACK package :  Parallel linear algebra routines


Your calculation utilizes the atom-pairwise dispersion correction
with the zero-damping scheme (D30)
Cite in your paper:
S.Grimme, J.Antony, S.Ehrlich and H.Krieg, J.Chem.Phys., 132, (2010), 154104 
   

XCFun DFT library Copyright 2009-2010 Ulf Ekstrom and contributors.
See http://admol.org/xcfun for more information. This is free soft-
ware; see the source code for copying conditions. There is ABSOLUTELY
NO WARRANTY; not even for MERCHANTABILITY or FITNESS FOR A PARTICULAR
PURPOSE. For details see the documentation. Scientific users of this 
library should cite U. Ekstrom, L. Visscher, R. Bast, A. J. Thorvald-
sen and K. Ruud; J.Chem.Theor.Comp. 2010, DOI: 10.1021/ct100117s
XCFun Version 0.99 
----- Orbital basis set information -----
Your calculation utilizes the basis: def2-TZVP
   F. Weigend and R. Ahlrichs, Phys. Chem. Chem. Phys. 7, 3297 (2005).

----- AuxJ basis set information -----
Your calculation utilizes the auxiliary basis: def2/J
   F. Weigend, Phys. Chem. Chem. Phys. 8, 1057 (2006).

================================================================================
                                        WARNINGS
                       Please study these warnings very carefully!
================================================================================


WARNING: Geometry Optimization
  ===> : Switching off AutoStart
         For restart on a previous wavefunction, please use MOREAD

INFO   : the flag for use of LIBINT has been found!

================================================================================
                                       INPUT FILE
================================================================================
NAME = F4-MCTCNQ.inp
|  1> # avogadro generated ORCA input file 
|  2> # Basic Mode
|  3> # 
|  4> ! wB97X-D3 OPT def2-TZVP def2/J CPCM
|  5> %cpcm
|  6>   epsilon 3
|  7> end
|  8> %pal
|  9>  nprocs 4
| 10> end 
| 11> 
| 12> * xyz 0 1
| 13>    C       -4.61596        3.22036       -0.00022
| 14>    C       -3.37260        2.44910       -0.00022
| 15>    C       -3.57605        1.02870        0.00080
| 16>    C       -2.13142        3.02805       -0.00013
| 17>    C       -2.04936        4.41937       -0.00086
| 18>    C       -0.89860        2.30060        0.00116
| 19>    F       -3.14415        5.22646       -0.00188
| 20>    F       -0.90241        0.94019        0.00161
| 21>    C       -0.85345        5.07040        0.00069
| 22>    C        0.36163        2.97440        0.00356
| 23>    C        0.41565        4.40611        0.00426
| 24>    C        1.55948        5.20595        0.01193
| 25>    C        1.38251        6.65349        0.01232
| 26>    C        3.05127        4.95501        0.02214
| 27>    F       -1.02164        6.41561        0.00110
| 28>    F        1.49085        2.21423        0.00659
| 29>    O        3.70769        3.76426       -0.01081
| 30>    C        5.10151        3.84802        0.00278
| 31>    H        5.42999        4.48120       -0.85964
| 32>    H        5.61793        2.87417       -0.04035
| 33>    H        5.41608        4.40436        0.92124
| 34>    O        3.75497        5.96904        0.05907
| 35>    N       -5.59264        3.84454        0.00006
| 36>    N       -3.76626       -0.11088        0.00159
| 37>    N        1.23572        7.79974        0.01258
| 38> *
| 39> 
| 40> 
| 41>                          ****END OF INPUT****
================================================================================

                       *****************************
                       * Geometry Optimization Run *
                       *****************************

Geometry optimization settings:
Update method            Update   .... BFGS
Choice of coordinates    CoordSys .... Z-matrix Internals
Initial Hessian          InHess   .... Almoef's Model

Convergence Tolerances:
Energy Change            TolE     ....  5.0000e-06 Eh
Max. Gradient            TolMAXG  ....  3.0000e-04 Eh/bohr
RMS Gradient             TolRMSG  ....  1.0000e-04 Eh/bohr
Max. Displacement        TolMAXD  ....  4.0000e-03 bohr
RMS Displacement         TolRMSD  ....  2.0000e-03 bohr
Strict Convergence                ....  False
------------------------------------------------------------------------------
                        ORCA OPTIMIZATION COORDINATE SETUP
------------------------------------------------------------------------------

The optimization will be done in new redundant internal coordinates
Making redundant internal coordinates   ...  (new redundants) done
Evaluating the initial hessian          ...  (Almloef) done
Evaluating the coordinates              ...  done
Calculating the B-matrix                .... done
Calculating the G-matrix                .... done
Diagonalizing the G-matrix              .... done
Small eigenvalue found = 4.584e-03
Small eigenvalue found = 1.893e-02
Small eigenvalue found = 2.463e-02
The first mode is                       ....   37
The number of degrees of freedom        ....   69

    -----------------------------------------------------------------
                    Redundant Internal Coordinates


    -----------------------------------------------------------------
         Definition                    Initial Value    Approx d2E/dq
    -----------------------------------------------------------------
      1. B(C   1,C   0)                  1.4631         0.477578   
      2. B(C   2,C   1)                  1.4349         0.529796   
      3. B(C   3,C   1)                  1.3696         0.673503   
      4. B(C   4,C   3)                  1.3937         0.616275   
      5. B(C   5,C   3)                  1.4314         0.536560   
      6. B(F   6,C   4)                  1.3601         0.580254   
      7. B(F   7,C   5)                  1.3604         0.579652   
      8. B(C   8,C   4)                  1.3616         0.693421   
      9. B(C   9,C   5)                  1.4291         0.541293   
     10. B(C  10,C   9)                  1.4327         0.534032   
     11. B(C  10,C   8)                  1.4324         0.534582   
     12. B(C  11,C  10)                  1.3958         0.611711   
     13. B(C  12,C  11)                  1.4583         0.486118   
     14. B(C  13,C  11)                  1.5128         0.397966   
     15. B(F  14,C   8)                  1.3557         0.589816   
     16. B(F  15,C   9)                  1.3613         0.577874   
     17. B(O  16,C  13)                  1.3601         0.624578   
     18. B(C  17,O  16)                  1.3964         0.546593   
     19. B(H  18,C  17)                  1.1192         0.323485   
     20. B(H  19,C  17)                  1.1031         0.343121   
     21. B(H  20,C  17)                  1.1189         0.323775   
     22. B(O  21,C  13)                  1.2348         0.989540   
     23. B(N  22,C   0)                  1.1591         1.306975   
     24. B(N  23,C   2)                  1.1553         1.325110   
     25. B(N  24,C  12)                  1.1556         1.323818   
     26. L(C   1,C   0,N  22,C   2, 2) 179.9728         0.470913   
     27. L(C   1,C   0,N  22,C   2, 1) 180.7705         0.470913   
     28. A(C   0,C   1,C   3)          123.1818         0.420424   
     29. A(C   2,C   1,C   3)          123.1580         0.428300   
     30. A(C   0,C   1,C   2)          113.6602         0.402901   
     31. L(C   1,C   2,N  23,C   0, 1) 178.6753         0.481210   
     32. L(C   1,C   2,N  23,C   0, 2) 179.9966         0.481210   
     33. A(C   1,C   3,C   4)          118.3821         0.440112   
     34. A(C   4,C   3,C   5)          117.1682         0.422505   
     35. A(C   1,C   3,C   5)          124.4497         0.429275   
     36. A(C   3,C   4,F   6)          123.0226         0.423793   
     37. A(C   3,C   4,C   8)          121.9383         0.442436   
     38. A(F   6,C   4,C   8)          115.0390         0.432851   
     39. A(F   7,C   5,C   9)          118.2922         0.414029   
     40. A(C   3,C   5,C   9)          121.3246         0.412854   
     41. A(C   3,C   5,F   7)          120.3831         0.413384   
     42. A(C   4,C   8,C  10)          123.8080         0.431241   
     43. A(C  10,C   8,F  14)          124.7555         0.414390   
     44. A(C   4,C   8,F  14)          111.4364         0.434125   
     45. A(C   5,C   9,C  10)          120.2926         0.412508   
     46. A(C  10,C   9,F  15)          121.7867         0.412812   
     47. A(C   5,C   9,F  15)          117.9206         0.413803   
     48. A(C   8,C  10,C   9)          115.4681         0.411596   
     49. A(C   9,C  10,C  11)          127.1241         0.421588   
     50. A(C   8,C  10,C  11)          117.4075         0.421666   
     51. A(C  12,C  11,C  13)          106.5182         0.384399   
     52. A(C  10,C  11,C  13)          135.4885         0.400171   
     53. A(C  10,C  11,C  12)          117.9932         0.414587   
     54. L(C  11,C  12,N  24,C  13, 2) 179.9998         0.473561   
     55. L(C  11,C  12,N  24,C  13, 1) 180.3275         0.473561   
     56. A(C  11,C  13,O  16)          128.3887         0.399068   
     57. A(O  16,C  13,O  21)          116.3996         0.466924   
     58. A(C  11,C  13,O  21)          115.2108         0.433104   
     59. A(C  13,O  16,C  17)          115.4032         0.419416   
     60. A(H  18,C  17,H  20)          105.5874         0.281315   
     61. A(O  16,C  17,H  20)          108.5676         0.337329   
     62. A(H  18,C  17,H  19)          109.3851         0.283858   
     63. A(O  16,C  17,H  19)          114.4523         0.340612   
     64. A(O  16,C  17,H  18)          108.6261         0.337278   
     65. A(H  19,C  17,H  20)          109.8409         0.283898   
     66. D(C   5,C   3,C   1,C   0)    179.9375         0.031749   
     67. D(C   4,C   3,C   1,C   0)     -0.0386         0.031749   
     68. D(C   5,C   3,C   1,C   2)     -0.0089         0.031749   
     69. D(C   4,C   3,C   1,C   2)   -179.9850         0.031749   
     70. D(F   6,C   4,C   3,C   5)   -179.9891         0.026262   
     71. D(F   6,C   4,C   3,C   1)     -0.0112         0.026262   
     72. D(C   8,C   4,C   3,C   1)    179.9249         0.026262   
     73. D(C   8,C   4,C   3,C   5)     -0.0529         0.026262   
     74. D(C   9,C   5,C   3,C   4)      0.0885         0.019664   
     75. D(C   9,C   5,C   3,C   1)   -179.8879         0.019664   
     76. D(F   7,C   5,C   3,C   4)   -179.9845         0.019664   
     77. D(F   7,C   5,C   3,C   1)      0.0392         0.019664   
     78. D(F  14,C   8,C   4,C   3)   -179.9310         0.033812   
     79. D(C  10,C   8,C   4,F   6)    179.8888         0.033812   
     80. D(C  10,C   8,C   4,C   3)     -0.0522         0.033812   
     81. D(F  14,C   8,C   4,F   6)      0.0100         0.033812   
     82. D(F  15,C   9,C   5,F   7)     -0.0200         0.020023   
     83. D(F  15,C   9,C   5,C   3)    179.9085         0.020023   
     84. D(C  10,C   9,C   5,F   7)   -179.9505         0.020023   
     85. D(C  10,C   9,C   5,C   3)     -0.0219         0.020023   
     86. D(C  11,C  10,C   9,F  15)     -0.2063         0.019474   
     87. D(C   8,C  10,C   9,F  15)    179.9959         0.019474   
     88. D(C   8,C  10,C   9,C   5)     -0.0764         0.019474   
     89. D(C  11,C  10,C   8,F  14)      0.1604         0.019515   
     90. D(C  11,C  10,C   8,C   4)   -179.7023         0.019515   
     91. D(C  11,C  10,C   9,C   5)    179.7214         0.019474   
     92. D(C   9,C  10,C   8,F  14)    179.9788         0.019515   
     93. D(C   9,C  10,C   8,C   4)      0.1161         0.019515   
     94. D(C  13,C  11,C  10,C   8)    179.7663         0.025852   
     95. D(C  12,C  11,C  10,C   9)   -179.9468         0.025852   
     96. D(C  12,C  11,C  10,C   8)     -0.1524         0.025852   
     97. D(C  13,C  11,C  10,C   9)     -0.0281         0.025852   
     98. D(O  21,C  13,C  11,C  12)      1.5815         0.010896   
     99. D(O  21,C  13,C  11,C  10)   -178.3436         0.010896   
    100. D(O  16,C  13,C  11,C  12)   -178.0529         0.010896   
    101. D(O  16,C  13,C  11,C  10)      2.0220         0.010896   
    102. D(C  17,O  16,C  13,O  21)      0.0525         0.028651   
    103. D(C  17,O  16,C  13,C  11)    179.6832         0.028651   
    104. D(H  20,C  17,O  16,C  13)     57.8159         0.023797   
    105. D(H  19,C  17,O  16,C  13)   -179.0863         0.023797   
    106. D(H  18,C  17,O  16,C  13)    -56.5364         0.023797   
    -----------------------------------------------------------------

Number of atoms                         .... 25
Number of degrees of freedom            .... 106

         *************************************************************
         *                GEOMETRY OPTIMIZATION CYCLE   1            *
         *************************************************************
---------------------------------
CARTESIAN COORDINATES (ANGSTROEM)
---------------------------------
  C     -4.615960    3.220360   -0.000220
  C     -3.372600    2.449100   -0.000220
  C     -3.576050    1.028700    0.000800
  C     -2.131420    3.028050   -0.000130
  C     -2.049360    4.419370   -0.000860
  C     -0.898600    2.300600    0.001160
  F     -3.144150    5.226460   -0.001880
  F     -0.902410    0.940190    0.001610
  C     -0.853450    5.070400    0.000690
  C      0.361630    2.974400    0.003560
  C      0.415650    4.406110    0.004260
  C      1.559480    5.205950    0.011930
  C      1.382510    6.653490    0.012320
  C      3.051270    4.955010    0.022140
  F     -1.021640    6.415610    0.001100
  F      1.490850    2.214230    0.006590
  O      3.707690    3.764260   -0.010810
  C      5.101510    3.848020    0.002780
  H      5.429990    4.481200   -0.859640
  H      5.617930    2.874170   -0.040350
  H      5.416080    4.404360    0.921240
  O      3.754970    5.969040    0.059070
  N     -5.592640    3.844540    0.000060
  N     -3.766260   -0.110880    0.001590
  N      1.235720    7.799740    0.012580

----------------------------
CARTESIAN COORDINATES (A.U.)
----------------------------
  NO LB      ZA    FRAG     MASS         X           Y           Z
   0 C     6.0000    0    12.011   -8.722900    6.085598   -0.000416
   1 C     6.0000    0    12.011   -6.373290    4.628128   -0.000416
   2 C     6.0000    0    12.011   -6.757755    1.943961    0.001512
   3 C     6.0000    0    12.011   -4.027800    5.722185   -0.000246
   4 C     6.0000    0    12.011   -3.872729    8.351399   -0.001625
   5 C     6.0000    0    12.011   -1.698108    4.347504    0.002192
   6 F     9.0000    0    18.998   -5.941582    9.876578   -0.003553
   7 F     9.0000    0    18.998   -1.705308    1.776702    0.003042
   8 C     6.0000    0    12.011   -1.612787    9.581667    0.001304
   9 C     6.0000    0    12.011    0.683382    5.620801    0.006727
  10 C     6.0000    0    12.011    0.785465    8.326341    0.008050
  11 C     6.0000    0    12.011    2.946990    9.837820    0.022544
  12 C     6.0000    0    12.011    2.612565   12.573274    0.023281
  13 C     6.0000    0    12.011    5.766065    9.363612    0.041839
  14 F     9.0000    0    18.998   -1.930620   12.123746    0.002079
  15 F     9.0000    0    18.998    2.817298    4.184288    0.012453
  16 O     8.0000    0    15.999    7.006519    7.113420   -0.020428
  17 C     6.0000    0    12.011    9.640457    7.271704    0.005253
  18 H     1.0000    0     1.008   10.261194    8.468241   -1.624484
  19 H     1.0000    0     1.008   10.616349    5.431394   -0.076250
  20 H     1.0000    0     1.008   10.234908    8.323034    1.740891
  21 O     8.0000    0    15.999    7.095865   11.279851    0.111626
  22 N     7.0000    0    14.007  -10.568558    7.265128    0.000113
  23 N     7.0000    0    14.007   -7.117200   -0.209533    0.003005
  24 N     7.0000    0    14.007    2.335172   14.739373    0.023773

--------------------------------
INTERNAL COORDINATES (ANGSTROEM)
--------------------------------
 C      0   0   0     0.000000000000     0.00000000     0.00000000
 C      1   0   0     1.463142534820     0.00000000     0.00000000
 C      2   1   0     1.434896896261   113.66016845     0.00000000
 C      2   1   3     1.369565954235   123.18178773   180.04896535
 C      4   2   1     1.393738038119   118.38214484   359.96139355
 C      4   2   1     1.431443438980   124.44965276   179.93750512
 F      5   4   2     1.360132512882   123.02262499     0.00000000
 F      6   4   2     1.360415409608   120.38311715     0.03915820
 C      5   4   2     1.361632546431   121.93833185   179.92492956
 C      6   4   2     1.429052781705   121.32463623   180.11207411
 C      9   5   4     1.432448518796   123.80795795   359.94784245
 C     11   9   5     1.395761413494   117.40751948   180.29774819
 C     12  11   9     1.458317724160   117.99322590   359.84758108
 C     12  11   9     1.512783041880   135.48852485   179.76625987
 F      9   5   4     1.355683587088   111.43637175   180.06902876
 F     10   6   4     1.361251416234   117.92058889   179.90854002
 O     14  12  11     1.360095026607   128.38869424     2.02200771
 C     17  14  12     1.396400593705   115.40322684   179.68322989
 H     18  17  14     1.119189116816   108.62613780   303.46360603
 H     18  17  14     1.103147150565   114.45229121   180.91369820
 H     18  17  14     1.118944704666   108.56760096    57.81586394
 O     14  12  11     1.234833736096   115.21078484   181.65641307
 N      1   2   3     1.159096446893   179.22935735   178.92641073
 N      3   2   1     1.155345422201   178.67525897     0.08447217
 N     13  12  11     1.155610848945   179.67249814   359.92303340

---------------------------
INTERNAL COORDINATES (A.U.)
---------------------------
 C      0   0   0     0.000000000000     0.00000000     0.00000000
 C      1   0   0     2.764938685701     0.00000000     0.00000000
 C      2   1   0     2.711562164347   113.66016845     0.00000000
 C      2   1   3     2.588104575847   123.18178773   180.04896535
 C      4   2   1     2.633783194474   118.38214484   359.96139355
 C      4   2   1     2.705036075871   124.44965276   179.93750512
 F      5   4   2     2.570277955190   123.02262499     0.00000000
 F      6   4   2     2.570812552526   120.38311715     0.03915820
 C      5   4   2     2.573112607788   121.93833185   179.92492956
 C      6   4   2     2.700518388342   121.32463623   180.11207411
 C      9   5   4     2.706935401465   123.80795795   359.94784245
 C     11   9   5     2.637606819799   117.40751948   180.29774819
 C     12  11   9     2.755821114906   117.99322590   359.84758108
 C     12  11   9     2.858745649194   135.48852485   179.76625987
 F      9   5   4     2.561870703848   111.43637175   180.06902876
 F     10   6   4     2.572392376095   117.92058889   179.90854002
 O     14  12  11     2.570207116395   128.38869424     2.02200771
 C     17  14  12     2.638814695348   115.40322684   179.68322989
 H     18  17  14     2.114960922848   108.62613780   303.46360603
 H     18  17  14     2.084645999984   114.45229121   180.91369820
 H     18  17  14     2.114499050820   108.56760096    57.81586394
 O     14  12  11     2.333497582148   115.21078484   181.65641307
 N      1   2   3     2.190374847429   179.22935735   178.92641073
 N      3   2   1     2.183286438039   178.67525897     0.08447217
 N     13  12  11     2.183788021895   179.67249814   359.92303340

---------------------
BASIS SET INFORMATION
---------------------
There are 5 groups of distinct atoms

 Group   1 Type C   : 11s6p2d1f contracted to 5s3p2d1f pattern {62111/411/11/1}
 Group   2 Type F   : 11s6p2d1f contracted to 5s3p2d1f pattern {62111/411/11/1}
 Group   3 Type O   : 11s6p2d1f contracted to 5s3p2d1f pattern {62111/411/11/1}
 Group   4 Type H   : 5s1p contracted to 3s1p pattern {311/1}
 Group   5 Type N   : 11s6p2d1f contracted to 5s3p2d1f pattern {62111/411/11/1}

Atom   0C    basis set group =>   1
Atom   1C    basis set group =>   1
Atom   2C    basis set group =>   1
Atom   3C    basis set group =>   1
Atom   4C    basis set group =>   1
Atom   5C    basis set group =>   1
Atom   6F    basis set group =>   2
Atom   7F    basis set group =>   2
Atom   8C    basis set group =>   1
Atom   9C    basis set group =>   1
Atom  10C    basis set group =>   1
Atom  11C    basis set group =>   1
Atom  12C    basis set group =>   1
Atom  13C    basis set group =>   1
Atom  14F    basis set group =>   2
Atom  15F    basis set group =>   2
Atom  16O    basis set group =>   3
Atom  17C    basis set group =>   1
Atom  18H    basis set group =>   4
Atom  19H    basis set group =>   4
Atom  20H    basis set group =>   4
Atom  21O    basis set group =>   3
Atom  22N    basis set group =>   5
Atom  23N    basis set group =>   5
Atom  24N    basis set group =>   5
---------------------------------
AUXILIARY/J BASIS SET INFORMATION
---------------------------------
There are 5 groups of distinct atoms

 Group   1 Type C   : 12s5p4d2f1g contracted to 6s4p3d1f1g pattern {711111/2111/211/2/1}
 Group   2 Type F   : 12s5p4d2f1g contracted to 6s4p3d1f1g pattern {711111/2111/211/2/1}
 Group   3 Type O   : 12s5p4d2f1g contracted to 6s4p3d1f1g pattern {711111/2111/211/2/1}
 Group   4 Type H   : 5s2p1d contracted to 3s1p1d pattern {311/2/1}
 Group   5 Type N   : 12s5p4d2f1g contracted to 6s4p3d1f1g pattern {711111/2111/211/2/1}

Atom   0C    basis set group =>   1
Atom   1C    basis set group =>   1
Atom   2C    basis set group =>   1
Atom   3C    basis set group =>   1
Atom   4C    basis set group =>   1
Atom   5C    basis set group =>   1
Atom   6F    basis set group =>   2
Atom   7F    basis set group =>   2
Atom   8C    basis set group =>   1
Atom   9C    basis set group =>   1
Atom  10C    basis set group =>   1
Atom  11C    basis set group =>   1
Atom  12C    basis set group =>   1
Atom  13C    basis set group =>   1
Atom  14F    basis set group =>   2
Atom  15F    basis set group =>   2
Atom  16O    basis set group =>   3
Atom  17C    basis set group =>   1
Atom  18H    basis set group =>   4
Atom  19H    basis set group =>   4
Atom  20H    basis set group =>   4
Atom  21O    basis set group =>   3
Atom  22N    basis set group =>   5
Atom  23N    basis set group =>   5
Atom  24N    basis set group =>   5
--------------------------------------------------------------------------
[[5451,1],0]: A high-performance Open MPI point-to-point messaging module
was unable to find any relevant network interfaces:

Module: OpenFabrics (openib)
  Host: compute-1-3

Another transport will be used instead, although this may result in
lower performance.

NOTE: You can disable this warning by setting the MCA parameter
btl_base_warn_component_unused to 0.
--------------------------------------------------------------------------


           ************************************************************
           *        Program running with 4 parallel MPI-processes     *
           *              working on a common directory               *
           ************************************************************
------------------------------------------------------------------------------
                           ORCA GTO INTEGRAL CALCULATION
------------------------------------------------------------------------------

                         BASIS SET STATISTICS AND STARTUP INFO

 # of primitive gaussian shells          ...  458
 # of primitive gaussian functions       ... 1036
 # of contracted shells                  ...  254
 # of contracted basis functions         ...  700
 Highest angular momentum                ...    3
 Maximum contraction depth               ...    6
 Integral package used                   ... LIBINT
 Integral threshhold            Thresh   ...  2.500e-11
 Primitive cut-off              TCut     ...  2.500e-12


------------------------------ INTEGRAL EVALUATION ----------------------------


 * One electron integrals 
 Pre-screening matrix                    ... done
 Shell pair data                         ... done (   0.010 sec)

[compute-1-3.local:65199] 3 more processes have sent help message help-mpi-btl-base.txt / btl:no-nics
[compute-1-3.local:65199] Set MCA parameter "orte_base_help_aggregate" to 0 to see all help / error messages
--------------------------------------------------------------------------
[[5415,1],0]: A high-performance Open MPI point-to-point messaging module
was unable to find any relevant network interfaces:

Module: OpenFabrics (openib)
  Host: compute-1-3

Another transport will be used instead, although this may result in
lower performance.

NOTE: You can disable this warning by setting the MCA parameter
btl_base_warn_component_unused to 0.
--------------------------------------------------------------------------


           ************************************************************
           *        Program running with 4 parallel MPI-processes     *
           *              working on a common directory               *
           ************************************************************
-------------------------------------------------------------------------------
                                 ORCA SCF
-------------------------------------------------------------------------------

------------
SCF SETTINGS
------------
Hamiltonian:
 Density Functional     Method          .... DFT(GTOs)
 Exchange Functional    Exchange        .... WB97X-D3
 Correlation Functional Correlation     .... WB97X-D3
 Gradients option       PostSCFGGA      .... off
 Hybrid DFT is turned on
   Fraction HF Exchange ScalHFX         ....  0.195728
   Scaling of DF-GGA-X  ScalDFX         ....  0.000000
   Scaling of DF-GGA-C  ScalDFC         ....  1.000000
   Scaling of DF-LDA-C  ScalLDAC        ....  1.000000
   Perturbative correction              ....  0.000000
   Density functional embedding theory  .... OFF
 Long-range corrected/Screened/Range-Separated Hybrid DFT is turned on
   Amount of maximum screened exact exchange              ....  0.804272
   Range separation parameter mu (erf(mu*r12)/r12)        ....  0.250000


General Settings:
 Integral files         IntName         .... F4-MCTCNQ
 Hartree-Fock type      HFTyp           .... RHF
 Total Charge           Charge          ....    0
 Multiplicity           Mult            ....    1
 Number of Electrons    NEL             ....  154
 Basis Dimension        Dim             ....  700
 Nuclear Repulsion      ENuc            ....   1693.7140031532 Eh

Convergence Acceleration:
 DIIS                   CNVDIIS         .... on
   Start iteration      DIISMaxIt       ....    12
   Startup error        DIISStart       ....  0.200000
   # of expansion vecs  DIISMaxEq       ....     5
   Bias factor          DIISBfac        ....   1.050
   Max. coefficient     DIISMaxC        ....  10.000
 Newton-Raphson         CNVNR           .... off
 SOSCF                  CNVSOSCF        .... on
   Start iteration      SOSCFMaxIt      ....   150
   Startup grad/error   SOSCFStart      ....  0.003300
 Level Shifting         CNVShift        .... on
   Level shift para.    LevelShift      ....    0.2500
   Turn off err/grad.   ShiftErr        ....    0.0010
 Zerner damping         CNVZerner       .... off
 Static damping         CNVDamp         .... on
   Fraction old density DampFac         ....    0.7000
   Max. Damping (<1)    DampMax         ....    0.9800
   Min. Damping (>=0)   DampMin         ....    0.0000
   Turn off err/grad.   DampErr         ....    0.1000
 Fernandez-Rico         CNVRico         .... off

SCF Procedure:
 Maximum # iterations   MaxIter         ....   125
 SCF integral mode      SCFMode         .... Direct
   Integral package                     .... LIBINT
 Reset frequency        DirectResetFreq ....    20
 Integral Threshold     Thresh          ....  2.500e-11 Eh
 Primitive CutOff       TCut            ....  2.500e-12 Eh

Convergence Tolerance:
 Convergence Check Mode ConvCheckMode   .... Total+1el-Energy
 Convergence forced     ConvForced      .... 0
 Energy Change          TolE            ....  1.000e-08 Eh
 1-El. energy change                    ....  1.000e-05 Eh
 Orbital Gradient       TolG            ....  1.000e-05
 Orbital Rotation angle TolX            ....  1.000e-05
 DIIS Error             TolErr          ....  5.000e-07


Diagonalization of the overlap matrix:
Smallest eigenvalue                        ... 9.283e-06
Time for diagonalization                   ...    0.219 sec
Threshold for overlap eigenvalues          ... 1.000e-08
Number of eigenvalues below threshold      ... 0
Time for construction of square roots      ...    0.088 sec
Total time needed                          ...    0.309 sec

-------------------
DFT GRID GENERATION
-------------------

General Integration Accuracy     IntAcc      ...  4.340
Radial Grid Type                 RadialGrid  ... Gauss-Chebyshev
Angular Grid (max. acc.)         AngularGrid ... Lebedev-110
Angular grid pruning method      GridPruning ... 3 (G Style)
Weight generation scheme         WeightScheme... Becke
Basis function cutoff            BFCut       ...    1.0000e-11
Integration weight cutoff        WCut        ...    1.0000e-14
Grids for H and He will be reduced by one unit

# of grid points (after initial pruning)     ...  39408 (   0.0 sec)
# of grid points (after weights+screening)   ...  36134 (   0.1 sec)
nearest neighbour list constructed           ...    0.0 sec
Grid point re-assignment to atoms done       ...    0.0 sec
Grid point division into batches done        ...    0.1 sec
Reduced shell lists constructed in    0.3 sec

Total number of grid points                  ...    36134
Total number of batches                      ...      578
Average number of points per batch           ...       62
Average number of grid points per atom       ...     1445
Average number of shells per batch           ...   123.48 (48.61%)
Average number of basis functions per batch  ...   349.64 (49.95%)
Average number of large shells per batch     ...    88.87 (71.97%)
Average number of large basis fcns per batch ...   252.62 (72.25%)
Maximum spatial batch extension              ...  10.28, 12.80, 24.76 au
Average spatial batch extension              ...   0.63,  0.58,  1.11 au

Time for grid setup =    0.438 sec

------------------------------
INITIAL GUESS: MODEL POTENTIAL
------------------------------
Loading Hartree-Fock densities                     ... done
Calculating cut-offs                               ... done
Setting up the integral package                    ... done
Initializing the effective Hamiltonian             ... done
Starting the Coulomb interaction                   ... done (   0.6 sec)
Reading the grid                                   ... done
Mapping shells                                     ... done
Starting the XC term evaluation                    ... done (   0.7 sec)
  promolecular density results
     # of electrons  =    153.991586116
     EX              =   -143.058966898
     EC              =     -5.228218451
     EX+EC           =   -148.287185349
Transforming the Hamiltonian                       ... done (   0.1 sec)
Diagonalizing the Hamiltonian                      ... done (   0.2 sec)
Back transforming the eigenvectors                 ... done (   0.0 sec)
Now organizing SCF variables                       ... done
                      ------------------
                      INITIAL GUESS DONE (   2.2 sec)
                      ------------------

--------------------
CPCM SOLVATION MODEL
--------------------
CPCM parameters:
  Epsilon                                         ...       3.0000
  Refrac                                          ...       1.3300
  Rsolv                                           ...       1.3000
  Surface type                                    ...    GEPOL SES
  Epsilon function type                           ...         CPCM
Radii:
 Radius for C  used is    3.7795 Bohr (=   2.0000 Ang.)
 Radius for F  used is    3.2503 Bohr (=   1.7200 Ang.)
 Radius for O  used is    3.2503 Bohr (=   1.7200 Ang.)
 Radius for H  used is    2.4566 Bohr (=   1.3000 Ang.)
 Radius for N  used is    3.4582 Bohr (=   1.8300 Ang.)
Calculating surface                               ...        done! (  0.1s)
GEPOL surface points                              ...          921
GEPOL Volume                                      ...    2058.1825
GEPOL Surface-area                                ...    1038.9908
Calculating surface distance matrix               ...        done! (  0.0s)
Performing Cholesky decomposition & store         ...        done! (  0.0s)
Overall time for CPCM initialization              ...                 0.1s
--------------
SCF ITERATIONS
--------------
ITER       Energy         Delta-E        Max-DP      RMS-DP      [F,P]     Damp
               ***  Starting incremental Fock matrix formation  ***
[compute-1-3.local:65219] 3 more processes have sent help message help-mpi-btl-base.txt / btl:no-nics
[compute-1-3.local:65219] Set MCA parameter "orte_base_help_aggregate" to 0 to see all help / error messages
  0  -1210.7301552052   0.000000000000 0.05508774  0.00065510  0.2815562 0.7000
  1  -1210.9376767687  -0.207521563511 0.03192761  0.00049477  0.1298824 0.7000
                               ***Turning on DIIS***
  2  -1211.0214887687  -0.083812000018 0.05073332  0.00092325  0.0446978 0.0000
  3  -1211.1695072165  -0.148018447825 0.03521763  0.00040556  0.0664183 0.0000
  4  -1211.1931353526  -0.023628136042 0.00928458  0.00014989  0.0149423 0.0000
  5  -1211.1949412675  -0.001805914940 0.00541504  0.00006777  0.0026287 0.0000
  6  -1211.1952544502  -0.000313182658 0.00288983  0.00003812  0.0018109 0.0000
                      *** Initiating the SOSCF procedure ***
                           *** Shutting down DIIS ***
                      *** Re-Reading the Fockian *** 
                      *** Removing any level shift *** 
ITER      Energy       Delta-E        Grad      Rot      Max-DP    RMS-DP
  7  -1211.19539787  -0.0001434227  0.002983  0.002983  0.001849  0.000025
               *** Restarting incremental Fock matrix formation ***
  8  -1211.19545984  -0.0000619691  0.001316  0.003805  0.000594  0.000011
  9  -1211.19548210  -0.0000222546  0.000473  0.004335  0.000772  0.000015
 10  -1211.19548961  -0.0000075090  0.000307  0.001215  0.000370  0.000005
 11  -1211.19549223  -0.0000026279  0.000089  0.000397  0.000200  0.000003
 12  -1211.19549249  -0.0000002560  0.000040  0.000207  0.000083  0.000001
 13  -1211.19549265  -0.0000001639  0.000020  0.000106  0.000026  0.000000
 14  -1211.19549266  -0.0000000112  0.000014  0.000050  0.000018  0.000000
 15  -1211.19549267  -0.0000000087  0.000005  0.000038  0.000023  0.000000
 16  -1211.19549267   0.0000000066  0.000003  0.000012  0.000008  0.000000
                  ***Gradient check signals convergence***
              ***Rediagonalizing the Fockian in SOSCF/NRSCF***

               *****************************************************
               *                     SUCCESS                       *
               *           SCF CONVERGED AFTER  17 CYCLES          *
               *****************************************************

Setting up the final grid:

General Integration Accuracy     IntAcc      ...  4.670
Radial Grid Type                 RadialGrid  ... Gauss-Chebyshev
Angular Grid (max. acc.)         AngularGrid ... Lebedev-302
Angular grid pruning method      GridPruning ... 3 (G Style)
Weight generation scheme         WeightScheme... Becke
Basis function cutoff            BFCut       ...    1.0000e-11
Integration weight cutoff        WCut        ...    1.0000e-14
Grids for H and He will be reduced by one unit

# of grid points (after initial pruning)     ... 147086 (   0.0 sec)
# of grid points (after weights+screening)   ... 132582 (   0.4 sec)
nearest neighbour list constructed           ...    0.0 sec
Grid point re-assignment to atoms done       ...    0.0 sec
Grid point division into batches done        ...    0.8 sec
Reduced shell lists constructed in    1.6 sec

Total number of grid points                  ...   132582
Total number of batches                      ...     2085
Average number of points per batch           ...       63
Average number of grid points per atom       ...     5303
Average number of shells per batch           ...   113.93 (44.85%)
Average number of basis functions per batch  ...   320.17 (45.74%)
Average number of large shells per batch     ...    80.40 (70.57%)
Average number of large basis fcns per batch ...   226.32 (70.69%)
Maximum spatial batch extension              ...   8.51, 10.97, 21.51 au
Average spatial batch extension              ...   0.42,  0.41,  0.53 au

Final grid set up in    2.1 sec
Final integration                            ... done (   2.6 sec)
Change in XC energy                          ...     0.003791342
Integrated number of electrons               ...   154.000036023
Previous integrated no of electrons          ...   153.996929041

----------------
TOTAL SCF ENERGY
----------------

Total Energy       :        -1211.19170133 Eh          -32958.20176 eV

Components:
Nuclear Repulsion  :         1693.71400315 Eh           46088.30111 eV
Electronic Energy  :        -2904.90570448 Eh          -79046.50287 eV
One Electron Energy:        -5022.81604089 Eh         -136677.77304 eV
Two Electron Energy:         2117.91033641 Eh           57631.27017 eV
CPCM Dielectric    :           -0.02113034 Eh              -0.57499 eV

Virial components:
Potential Energy   :        -2417.11621427 Eh          -65773.07603 eV
Kinetic Energy     :         1205.92451294 Eh           32814.87427 eV
Virial Ratio       :            2.00436776


DFT components:
N(Alpha)           :       77.000018011734 electrons
N(Beta)            :       77.000018011734 electrons
N(Total)           :      154.000036023468 electrons
E(XC)              :     -105.909980420119 Eh       
DFET-embed. en.    :        0.000000000000 Eh       
CPCM Solvation Model Properties:
Surface-charge          :           -0.02669857
Charge-correction       :            0.00018494 Eh               0.00503 eV
Free-energy (cav+disp)  :            0.00524127 Eh               0.14262 eV
Corrected G(solv)       :        -1211.18627512 Eh          -32958.05410 eV

---------------
SCF CONVERGENCE
---------------

  Last Energy change         ...   -1.5411e-09  Tolerance :   1.0000e-08
  Last MAX-Density change    ...    9.8892e-06  Tolerance :   1.0000e-07
  Last RMS-Density change    ...    1.6209e-07  Tolerance :   5.0000e-09
  Last Orbital Gradient      ...    8.1743e-07  Tolerance :   1.0000e-05
  Last Orbital Rotation      ...    3.4001e-06  Tolerance :   1.0000e-05

             **** THE GBW FILE WAS UPDATED (F4-MCTCNQ.gbw) ****
             **** DENSITY FILE WAS UPDATED (F4-MCTCNQ.scfp) ****
             **** ENERGY FILE WAS UPDATED (F4-MCTCNQ.en.tmp) ****
             **** THE GBW FILE WAS UPDATED (F4-MCTCNQ.gbw) ****
             **** DENSITY FILE WAS UPDATED (F4-MCTCNQ.scfp) ****
----------------
ORBITAL ENERGIES
----------------

  NO   OCC          E(Eh)            E(eV) 
   0   2.0000     -24.859238      -676.4543 
   1   2.0000     -24.856343      -676.3755 
   2   2.0000     -24.850689      -676.2216 
   3   2.0000     -24.848755      -676.1690 
   4   2.0000     -19.313145      -525.5374 
   5   2.0000     -19.252751      -523.8940 
   6   2.0000     -14.461818      -393.5261 
   7   2.0000     -14.461006      -393.5040 
   8   2.0000     -14.446600      -393.1120 
   9   2.0000     -10.463413      -284.7239 
  10   2.0000     -10.456329      -284.5312 
  11   2.0000     -10.455356      -284.5047 
  12   2.0000     -10.440633      -284.1041 
  13   2.0000     -10.433799      -283.9181 
  14   2.0000     -10.415594      -283.4227 
  15   2.0000     -10.410145      -283.2744 
  16   2.0000     -10.407827      -283.2114 
  17   2.0000     -10.402490      -283.0661 
  18   2.0000     -10.363875      -282.0154 
  19   2.0000     -10.361298      -281.9452 
  20   2.0000     -10.350421      -281.6493 
  21   2.0000     -10.341061      -281.3946 
  22   2.0000      -1.405973       -38.2585 
  23   2.0000      -1.403497       -38.1911 
  24   2.0000      -1.389924       -37.8218 
  25   2.0000      -1.382812       -37.6282 
  26   2.0000      -1.259784       -34.2805 
  27   2.0000      -1.160109       -31.5682 
  28   2.0000      -1.087325       -29.5876 
  29   2.0000      -1.068079       -29.0639 
  30   2.0000      -1.056976       -28.7618 
  31   2.0000      -1.052251       -28.6332 
  32   2.0000      -1.019696       -27.7473 
  33   2.0000      -0.961504       -26.1639 
  34   2.0000      -0.934049       -25.4168 
  35   2.0000      -0.896371       -24.3915 
  36   2.0000      -0.856906       -23.3176 
  37   2.0000      -0.820258       -22.3204 
  38   2.0000      -0.813110       -22.1259 
  39   2.0000      -0.760778       -20.7018 
  40   2.0000      -0.739674       -20.1275 
  41   2.0000      -0.721978       -19.6460 
  42   2.0000      -0.716683       -19.5019 
  43   2.0000      -0.693411       -18.8687 
  44   2.0000      -0.681325       -18.5398 
  45   2.0000      -0.674982       -18.3672 
  46   2.0000      -0.661049       -17.9881 
  47   2.0000      -0.658643       -17.9226 
  48   2.0000      -0.655454       -17.8358 
  49   2.0000      -0.636119       -17.3097 
  50   2.0000      -0.625933       -17.0325 
  51   2.0000      -0.619962       -16.8700 
  52   2.0000      -0.609156       -16.5760 
  53   2.0000      -0.608159       -16.5489 
  54   2.0000      -0.601026       -16.3548 
  55   2.0000      -0.582985       -15.8638 
  56   2.0000      -0.560178       -15.2432 
  57   2.0000      -0.555479       -15.1154 
  58   2.0000      -0.554327       -15.0840 
  59   2.0000      -0.552795       -15.0423 
  60   2.0000      -0.539828       -14.6895 
  61   2.0000      -0.537649       -14.6302 
  62   2.0000      -0.512475       -13.9452 
  63   2.0000      -0.506463       -13.7816 
  64   2.0000      -0.503593       -13.7034 
  65   2.0000      -0.496444       -13.5089 
  66   2.0000      -0.482081       -13.1181 
  67   2.0000      -0.478521       -13.0212 
  68   2.0000      -0.475138       -12.9292 
  69   2.0000      -0.466224       -12.6866 
  70   2.0000      -0.462489       -12.5850 
  71   2.0000      -0.454762       -12.3747 
  72   2.0000      -0.446164       -12.1407 
  73   2.0000      -0.421454       -11.4683 
  74   2.0000      -0.408070       -11.1041 
  75   2.0000      -0.389544       -10.6000 
  76   2.0000      -0.340297        -9.2600 
  77   0.0000      -0.131514        -3.5787 
  78   0.0000       0.005774         0.1571 
  79   0.0000       0.014454         0.3933 
  80   0.0000       0.047639         1.2963 
  81   0.0000       0.057322         1.5598 
  82   0.0000       0.066859         1.8193 
  83   0.0000       0.081996         2.2312 
  84   0.0000       0.092333         2.5125 
  85   0.0000       0.100704         2.7403 
  86   0.0000       0.115291         3.1372 
  87   0.0000       0.129080         3.5124 
  88   0.0000       0.131663         3.5827 
  89   0.0000       0.135060         3.6752 
  90   0.0000       0.144098         3.9211 
  91   0.0000       0.160310         4.3623 
  92   0.0000       0.173722         4.7272 
  93   0.0000       0.176712         4.8086 
  94   0.0000       0.189964         5.1692 
  95   0.0000       0.191744         5.2176 
  96   0.0000       0.194230         5.2853 
  97   0.0000       0.204770         5.5721 
  98   0.0000       0.207478         5.6458 
  99   0.0000       0.222605         6.0574 
 100   0.0000       0.237308         6.4575 
 101   0.0000       0.248433         6.7602 
 102   0.0000       0.249109         6.7786 
 103   0.0000       0.258622         7.0375 
 104   0.0000       0.261716         7.1216 
 105   0.0000       0.266883         7.2623 
 106   0.0000       0.273447         7.4409 
 107   0.0000       0.284073         7.7300 
 108   0.0000       0.285717         7.7748 
 109   0.0000       0.291883         7.9425 
 110   0.0000       0.295977         8.0540 
 111   0.0000       0.297941         8.1074 
 112   0.0000       0.305002         8.2995 
 113   0.0000       0.308828         8.4036 
 114   0.0000       0.317306         8.6343 
 115   0.0000       0.321939         8.7604 
 116   0.0000       0.324479         8.8295 
 117   0.0000       0.328141         8.9292 
 118   0.0000       0.342686         9.3250 
 119   0.0000       0.351453         9.5635 
 120   0.0000       0.353592         9.6217 
 121   0.0000       0.363966         9.9040 
 122   0.0000       0.368016        10.0142 
 123   0.0000       0.370575        10.0838 
 124   0.0000       0.372703        10.1418 
 125   0.0000       0.384485        10.4624 
 126   0.0000       0.397937        10.8284 
 127   0.0000       0.405330        11.0296 
 128   0.0000       0.414406        11.2766 
 129   0.0000       0.417180        11.3520 
 130   0.0000       0.419863        11.4251 
 131   0.0000       0.435707        11.8562 
 132   0.0000       0.437151        11.8955 
 133   0.0000       0.439229        11.9520 
 134   0.0000       0.448450        12.2030 
 135   0.0000       0.452964        12.3258 
 136   0.0000       0.456736        12.4284 
 137   0.0000       0.464081        12.6283 
 138   0.0000       0.471177        12.8214 
 139   0.0000       0.478591        13.0231 
 140   0.0000       0.481006        13.0888 
 141   0.0000       0.493936        13.4407 
 142   0.0000       0.502147        13.6641 
 143   0.0000       0.506928        13.7942 
 144   0.0000       0.510631        13.8950 
 145   0.0000       0.513911        13.9842 
 146   0.0000       0.521009        14.1774 
 147   0.0000       0.524310        14.2672 
 148   0.0000       0.531127        14.4527 
 149   0.0000       0.533539        14.5183 
 150   0.0000       0.539029        14.6677 
 151   0.0000       0.541610        14.7380 
 152   0.0000       0.550638        14.9836 
 153   0.0000       0.558555        15.1990 
 154   0.0000       0.568721        15.4757 
 155   0.0000       0.573709        15.6114 
 156   0.0000       0.580182        15.7876 
 157   0.0000       0.581718        15.8294 
 158   0.0000       0.596791        16.2395 
 159   0.0000       0.606911        16.5149 
 160   0.0000       0.614700        16.7268 
 161   0.0000       0.617027        16.7902 
 162   0.0000       0.625372        17.0172 
 163   0.0000       0.632508        17.2114 
 164   0.0000       0.634705        17.2712 
 165   0.0000       0.642773        17.4907 
 166   0.0000       0.647096        17.6084 
 167   0.0000       0.659720        17.9519 
 168   0.0000       0.661609        18.0033 
 169   0.0000       0.667034        18.1509 
 170   0.0000       0.668823        18.1996 
 171   0.0000       0.672664        18.3041 
 172   0.0000       0.680318        18.5124 
 173   0.0000       0.694062        18.8864 
 174   0.0000       0.696648        18.9567 
 175   0.0000       0.711633        19.3645 
 176   0.0000       0.717475        19.5235 
 177   0.0000       0.723968        19.7002 
 178   0.0000       0.729804        19.8590 
 179   0.0000       0.734921        19.9982 
 180   0.0000       0.747130        20.3305 
 181   0.0000       0.755384        20.5550 
 182   0.0000       0.757465        20.6117 
 183   0.0000       0.761974        20.7344 
 184   0.0000       0.772381        21.0176 
 185   0.0000       0.781109        21.2551 
 186   0.0000       0.783394        21.3172 
 187   0.0000       0.787378        21.4256 
 188   0.0000       0.789919        21.4948 
 189   0.0000       0.799891        21.7662 
 190   0.0000       0.826410        22.4878 
 191   0.0000       0.835441        22.7335 
 192   0.0000       0.837132        22.7795 
 193   0.0000       0.842100        22.9147 
 194   0.0000       0.842970        22.9384 
 195   0.0000       0.850924        23.1548 
 196   0.0000       0.862361        23.4660 
 197   0.0000       0.867566        23.6077 
 198   0.0000       0.873716        23.7750 
 199   0.0000       0.882189        24.0056 
 200   0.0000       0.884672        24.0732 
 201   0.0000       0.894462        24.3396 
 202   0.0000       0.902169        24.5493 
 203   0.0000       0.904675        24.6175 
 204   0.0000       0.917077        24.9549 
 205   0.0000       0.923181        25.1210 
 206   0.0000       0.927725        25.2447 
 207   0.0000       0.932429        25.3727 
 208   0.0000       0.944680        25.7060 
 209   0.0000       0.960886        26.1470 
 210   0.0000       0.968511        26.3545 
 211   0.0000       0.972985        26.4763 
 212   0.0000       0.978621        26.6296 
 213   0.0000       0.983009        26.7490 
 214   0.0000       0.994426        27.0597 
 215   0.0000       1.003244        27.2997 
 216   0.0000       1.007181        27.4068 
 217   0.0000       1.025304        27.8999 
 218   0.0000       1.030515        28.0417 
 219   0.0000       1.033952        28.1353 
 220   0.0000       1.048800        28.5393 
 221   0.0000       1.059693        28.8357 
 222   0.0000       1.062345        28.9079 
 223   0.0000       1.075001        29.2523 
 224   0.0000       1.094194        29.7745 
 225   0.0000       1.098488        29.8914 
 226   0.0000       1.106090        30.0982 
 227   0.0000       1.113742        30.3065 
 228   0.0000       1.128860        30.7178 
 229   0.0000       1.135524        30.8992 
 230   0.0000       1.145010        31.1573 
 231   0.0000       1.145577        31.1727 
 232   0.0000       1.170252        31.8442 
 233   0.0000       1.175283        31.9811 
 234   0.0000       1.186742        32.2929 
 235   0.0000       1.196955        32.5708 
 236   0.0000       1.197878        32.5959 
 237   0.0000       1.209386        32.9091 
 238   0.0000       1.212080        32.9824 
 239   0.0000       1.229467        33.4555 
 240   0.0000       1.246796        33.9271 
 241   0.0000       1.263037        34.3690 
 242   0.0000       1.263721        34.3876 
 243   0.0000       1.279192        34.8086 
 244   0.0000       1.287013        35.0214 
 245   0.0000       1.296885        35.2900 
 246   0.0000       1.302986        35.4561 
 247   0.0000       1.314289        35.7636 
 248   0.0000       1.320818        35.9413 
 249   0.0000       1.326168        36.0869 
 250   0.0000       1.332726        36.2653 
 251   0.0000       1.347340        36.6630 
 252   0.0000       1.356719        36.9182 
 253   0.0000       1.359532        36.9947 
 254   0.0000       1.364525        37.1306 
 255   0.0000       1.384298        37.6687 
 256   0.0000       1.387543        37.7570 
 257   0.0000       1.425637        38.7936 
 258   0.0000       1.431779        38.9607 
 259   0.0000       1.433707        39.0132 
 260   0.0000       1.442994        39.2659 
 261   0.0000       1.454397        39.5762 
 262   0.0000       1.462266        39.7903 
 263   0.0000       1.465707        39.8839 
 264   0.0000       1.476578        40.1797 
 265   0.0000       1.479246        40.2523 
 266   0.0000       1.500441        40.8291 
 267   0.0000       1.506798        41.0021 
 268   0.0000       1.513560        41.1861 
 269   0.0000       1.517724        41.2994 
 270   0.0000       1.523008        41.4432 
 271   0.0000       1.529373        41.6163 
 272   0.0000       1.549276        42.1579 
 273   0.0000       1.573861        42.8269 
 274   0.0000       1.579309        42.9752 
 275   0.0000       1.583459        43.0881 
 276   0.0000       1.584780        43.1241 
 277   0.0000       1.607486        43.7419 
 278   0.0000       1.609754        43.8036 
 279   0.0000       1.611976        43.8641 
 280   0.0000       1.616549        43.9885 
 281   0.0000       1.622687        44.1555 
 282   0.0000       1.630480        44.3676 
 283   0.0000       1.646812        44.8120 
 284   0.0000       1.651061        44.9276 
 285   0.0000       1.663217        45.2584 
 286   0.0000       1.670672        45.4613 
 287   0.0000       1.678690        45.6795 
 288   0.0000       1.705429        46.4071 
 289   0.0000       1.714442        46.6523 
 290   0.0000       1.726862        46.9903 
 291   0.0000       1.736014        47.2394 
 292   0.0000       1.749664        47.6108 
 293   0.0000       1.766058        48.0569 
 294   0.0000       1.772498        48.2321 
 295   0.0000       1.781754        48.4840 
 296   0.0000       1.805279        49.1241 
 297   0.0000       1.822126        49.5826 
 298   0.0000       1.832474        49.8642 
 299   0.0000       1.849884        50.3379 
 300   0.0000       1.861316        50.6490 
 301   0.0000       1.876739        51.0687 
 302   0.0000       1.891427        51.4683 
 303   0.0000       1.907297        51.9002 
 304   0.0000       1.919928        52.2439 
 305   0.0000       1.938154        52.7399 
 306   0.0000       1.938774        52.7567 
 307   0.0000       1.953218        53.1498 
 308   0.0000       1.958284        53.2876 
 309   0.0000       1.983125        53.9636 
 310   0.0000       1.997841        54.3640 
 311   0.0000       2.001410        54.4611 
 312   0.0000       2.003295        54.5124 
 313   0.0000       2.025394        55.1138 
 314   0.0000       2.038747        55.4771 
 315   0.0000       2.053801        55.8868 
 316   0.0000       2.057363        55.9837 
 317   0.0000       2.058799        56.0228 
 318   0.0000       2.065012        56.1918 
 319   0.0000       2.077159        56.5224 
 320   0.0000       2.084589        56.7245 
 321   0.0000       2.090340        56.8810 
 322   0.0000       2.099371        57.1268 
 323   0.0000       2.110503        57.4297 
 324   0.0000       2.112248        57.4772 
 325   0.0000       2.114210        57.5306 
 326   0.0000       2.138564        58.1933 
 327   0.0000       2.145139        58.3722 
 328   0.0000       2.148021        58.4506 
 329   0.0000       2.156889        58.6919 
 330   0.0000       2.189372        59.5758 
 331   0.0000       2.199860        59.8612 
 332   0.0000       2.207163        60.0600 
 333   0.0000       2.229175        60.6589 
 334   0.0000       2.232387        60.7463 
 335   0.0000       2.238077        60.9012 
 336   0.0000       2.254559        61.3497 
 337   0.0000       2.270209        61.7755 
 338   0.0000       2.287903        62.2570 
 339   0.0000       2.306329        62.7584 
 340   0.0000       2.309957        62.8571 
 341   0.0000       2.327310        63.3293 
 342   0.0000       2.350319        63.9554 
 343   0.0000       2.357874        64.1610 
 344   0.0000       2.361242        64.2527 
 345   0.0000       2.364964        64.3539 
 346   0.0000       2.365977        64.3815 
 347   0.0000       2.374737        64.6199 
 348   0.0000       2.381809        64.8123 
 349   0.0000       2.408118        65.5282 
 350   0.0000       2.412163        65.6383 
 351   0.0000       2.434065        66.2343 
 352   0.0000       2.453230        66.7558 
 353   0.0000       2.456489        66.8445 
 354   0.0000       2.466630        67.1204 
 355   0.0000       2.475128        67.3516 
 356   0.0000       2.491478        67.7966 
 357   0.0000       2.495371        67.9025 
 358   0.0000       2.509252        68.2802 
 359   0.0000       2.512131        68.3586 
 360   0.0000       2.521173        68.6046 
 361   0.0000       2.540422        69.1284 
 362   0.0000       2.540777        69.1381 
 363   0.0000       2.559299        69.6421 
 364   0.0000       2.568032        69.8797 
 365   0.0000       2.572070        69.9896 
 366   0.0000       2.581171        70.2372 
 367   0.0000       2.591150        70.5088 
 368   0.0000       2.594884        70.6104 
 369   0.0000       2.611900        71.0734 
 370   0.0000       2.623003        71.3755 
 371   0.0000       2.637360        71.7662 
 372   0.0000       2.647661        72.0465 
 373   0.0000       2.652777        72.1857 
 374   0.0000       2.659497        72.3686 
 375   0.0000       2.697402        73.4000 
 376   0.0000       2.704124        73.5830 
 377   0.0000       2.710160        73.7472 
 378   0.0000       2.726984        74.2050 
 379   0.0000       2.729266        74.2671 
 380   0.0000       2.737818        74.4998 
 381   0.0000       2.739573        74.5476 
 382   0.0000       2.743323        74.6496 
 383   0.0000       2.763125        75.1885 
 384   0.0000       2.769091        75.3508 
 385   0.0000       2.782768        75.7230 
 386   0.0000       2.793846        76.0244 
 387   0.0000       2.817873        76.6782 
 388   0.0000       2.821877        76.7872 
 389   0.0000       2.824895        76.8693 
 390   0.0000       2.844962        77.4154 
 391   0.0000       2.857031        77.7438 
 392   0.0000       2.858078        77.7723 
 393   0.0000       2.873133        78.1819 
 394   0.0000       2.880308        78.3772 
 395   0.0000       2.882221        78.4292 
 396   0.0000       2.889323        78.6225 
 397   0.0000       2.894013        78.7501 
 398   0.0000       2.906044        79.0775 
 399   0.0000       2.915288        79.3290 
 400   0.0000       2.920507        79.4710 
 401   0.0000       2.930433        79.7411 
 402   0.0000       2.935932        79.8908 
 403   0.0000       2.941194        80.0340 
 404   0.0000       2.951067        80.3026 
 405   0.0000       2.956038        80.4379 
 406   0.0000       2.958555        80.5064 
 407   0.0000       2.984292        81.2067 
 408   0.0000       2.985591        81.2421 
 409   0.0000       2.988214        81.3134 
 410   0.0000       3.004790        81.7645 
 411   0.0000       3.017508        82.1106 
 412   0.0000       3.020581        82.1942 
 413   0.0000       3.021562        82.2209 
 414   0.0000       3.039106        82.6983 
 415   0.0000       3.043866        82.8278 
 416   0.0000       3.050835        83.0174 
 417   0.0000       3.053051        83.0777 
 418   0.0000       3.062103        83.3241 
 419   0.0000       3.070473        83.5518 
 420   0.0000       3.077956        83.7554 
 421   0.0000       3.082844        83.8885 
 422   0.0000       3.089972        84.0824 
 423   0.0000       3.096728        84.2663 
 424   0.0000       3.112955        84.7078 
 425   0.0000       3.115268        84.7707 
 426   0.0000       3.129188        85.1495 
 427   0.0000       3.141478        85.4840 
 428   0.0000       3.147762        85.6550 
 429   0.0000       3.155584        85.8678 
 430   0.0000       3.169834        86.2556 
 431   0.0000       3.173069        86.3436 
 432   0.0000       3.181642        86.5769 
 433   0.0000       3.190088        86.8067 
 434   0.0000       3.191224        86.8376 
 435   0.0000       3.215572        87.5002 
 436   0.0000       3.217535        87.5536 
 437   0.0000       3.226677        87.8023 
 438   0.0000       3.235708        88.0481 
 439   0.0000       3.238623        88.1274 
 440   0.0000       3.246473        88.3410 
 441   0.0000       3.247440        88.3673 
 442   0.0000       3.258004        88.6548 
 443   0.0000       3.272327        89.0446 
 444   0.0000       3.273905        89.0875 
 445   0.0000       3.284698        89.3812 
 446   0.0000       3.293351        89.6166 
 447   0.0000       3.297272        89.7233 
 448   0.0000       3.300726        89.8173 
 449   0.0000       3.315290        90.2136 
 450   0.0000       3.325637        90.4952 
 451   0.0000       3.332455        90.6807 
 452   0.0000       3.341505        90.9270 
 453   0.0000       3.342657        90.9583 
 454   0.0000       3.350353        91.1677 
 455   0.0000       3.361533        91.4720 
 456   0.0000       3.362216        91.4905 
 457   0.0000       3.384903        92.1079 
 458   0.0000       3.386001        92.1378 
 459   0.0000       3.394746        92.3757 
 460   0.0000       3.405010        92.6550 
 461   0.0000       3.408350        92.7459 
 462   0.0000       3.413667        92.8906 
 463   0.0000       3.417481        92.9944 
 464   0.0000       3.433381        93.4271 
 465   0.0000       3.438797        93.5744 
 466   0.0000       3.465003        94.2875 
 467   0.0000       3.470379        94.4338 
 468   0.0000       3.480123        94.6989 
 469   0.0000       3.489355        94.9502 
 470   0.0000       3.490290        94.9756 
 471   0.0000       3.498648        95.2031 
 472   0.0000       3.503520        95.3356 
 473   0.0000       3.514122        95.6241 
 474   0.0000       3.524865        95.9164 
 475   0.0000       3.538565        96.2892 
 476   0.0000       3.551971        96.6540 
 477   0.0000       3.553697        96.7010 
 478   0.0000       3.560447        96.8847 
 479   0.0000       3.579515        97.4036 
 480   0.0000       3.592509        97.7571 
 481   0.0000       3.593363        97.7804 
 482   0.0000       3.599349        97.9433 
 483   0.0000       3.606644        98.1418 
 484   0.0000       3.614514        98.3559 
 485   0.0000       3.626109        98.6714 
 486   0.0000       3.631856        98.8278 
 487   0.0000       3.663730        99.6952 
 488   0.0000       3.668818        99.8336 
 489   0.0000       3.679872       100.1344 
 490   0.0000       3.701739       100.7294 
 491   0.0000       3.733932       101.6055 
 492   0.0000       3.735974       101.6610 
 493   0.0000       3.754288       102.1594 
 494   0.0000       3.774300       102.7039 
 495   0.0000       3.774778       102.7169 
 496   0.0000       3.783930       102.9660 
 497   0.0000       3.790638       103.1485 
 498   0.0000       3.826076       104.1128 
 499   0.0000       3.841178       104.5238 
 500   0.0000       3.866730       105.2191 
 501   0.0000       3.888278       105.8054 
 502   0.0000       3.897693       106.0616 
 503   0.0000       3.917922       106.6121 
 504   0.0000       3.922444       106.7351 
 505   0.0000       3.947321       107.4121 
 506   0.0000       3.976456       108.2049 
 507   0.0000       3.977485       108.2329 
 508   0.0000       3.993514       108.6690 
 509   0.0000       4.020807       109.4117 
 510   0.0000       4.031007       109.6893 
 511   0.0000       4.035998       109.8251 
 512   0.0000       4.043786       110.0370 
 513   0.0000       4.045486       110.0833 
 514   0.0000       4.046739       110.1174 
 515   0.0000       4.059987       110.4779 
 516   0.0000       4.066321       110.6502 
 517   0.0000       4.078479       110.9810 
 518   0.0000       4.090043       111.2957 
 519   0.0000       4.093796       111.3978 
 520   0.0000       4.118968       112.0828 
 521   0.0000       4.141172       112.6870 
 522   0.0000       4.153321       113.0176 
 523   0.0000       4.166612       113.3793 
 524   0.0000       4.168922       113.4421 
 525   0.0000       4.198299       114.2415 
 526   0.0000       4.204774       114.4177 
 527   0.0000       4.218636       114.7949 
 528   0.0000       4.230822       115.1265 
 529   0.0000       4.235682       115.2588 
 530   0.0000       4.246165       115.5440 
 531   0.0000       4.254621       115.7741 
 532   0.0000       4.261105       115.9506 
 533   0.0000       4.281125       116.4953 
 534   0.0000       4.307035       117.2004 
 535   0.0000       4.320148       117.5572 
 536   0.0000       4.350849       118.3926 
 537   0.0000       4.359039       118.6155 
 538   0.0000       4.380229       119.1921 
 539   0.0000       4.418581       120.2357 
 540   0.0000       4.426566       120.4530 
 541   0.0000       4.429886       120.5433 
 542   0.0000       4.441098       120.8484 
 543   0.0000       4.457618       121.2980 
 544   0.0000       4.483594       122.0048 
 545   0.0000       4.488666       122.1428 
 546   0.0000       4.528141       123.2170 
 547   0.0000       4.570724       124.3757 
 548   0.0000       4.581528       124.6697 
 549   0.0000       4.597413       125.1020 
 550   0.0000       4.614854       125.5766 
 551   0.0000       4.616151       125.6118 
 552   0.0000       4.617481       125.6480 
 553   0.0000       4.627359       125.9168 
 554   0.0000       4.650211       126.5387 
 555   0.0000       4.654469       126.6545 
 556   0.0000       4.671076       127.1064 
 557   0.0000       4.676008       127.2407 
 558   0.0000       4.698455       127.8515 
 559   0.0000       4.716223       128.3349 
 560   0.0000       4.746568       129.1607 
 561   0.0000       4.753368       129.3457 
 562   0.0000       4.778059       130.0176 
 563   0.0000       4.799498       130.6010 
 564   0.0000       4.823360       131.2503 
 565   0.0000       4.828776       131.3977 
 566   0.0000       4.873228       132.6073 
 567   0.0000       4.883569       132.8887 
 568   0.0000       4.889119       133.0397 
 569   0.0000       4.915744       133.7642 
 570   0.0000       4.979267       135.4927 
 571   0.0000       5.000253       136.0638 
 572   0.0000       5.007535       136.2619 
 573   0.0000       5.033089       136.9573 
 574   0.0000       5.074254       138.0775 
 575   0.0000       5.171100       140.7128 
 576   0.0000       5.191825       141.2767 
 577   0.0000       5.218718       142.0085 
 578   0.0000       5.226167       142.2112 
 579   0.0000       5.231869       142.3664 
 580   0.0000       5.245234       142.7301 
 581   0.0000       5.256168       143.0276 
 582   0.0000       5.267335       143.3315 
 583   0.0000       5.295837       144.1070 
 584   0.0000       5.316267       144.6630 
 585   0.0000       5.347527       145.5136 
 586   0.0000       5.360929       145.8783 
 587   0.0000       5.379685       146.3887 
 588   0.0000       5.381755       146.4450 
 589   0.0000       5.411359       147.2506 
 590   0.0000       5.452701       148.3755 
 591   0.0000       5.491783       149.4390 
 592   0.0000       5.559970       151.2945 
 593   0.0000       5.583850       151.9443 
 594   0.0000       5.584212       151.9541 
 595   0.0000       5.624843       153.0597 
 596   0.0000       5.634817       153.3312 
 597   0.0000       5.672110       154.3460 
 598   0.0000       5.715876       155.5369 
 599   0.0000       5.736649       156.1022 
 600   0.0000       5.749223       156.4443 
 601   0.0000       5.758255       156.6901 
 602   0.0000       5.771287       157.0447 
 603   0.0000       5.776122       157.1763 
 604   0.0000       5.794078       157.6649 
 605   0.0000       5.814192       158.2122 
 606   0.0000       5.894450       160.3961 
 607   0.0000       5.920904       161.1160 
 608   0.0000       5.980554       162.7391 
 609   0.0000       5.990955       163.0222 
 610   0.0000       6.063434       164.9944 
 611   0.0000       6.114854       166.3936 
 612   0.0000       6.152294       167.4124 
 613   0.0000       6.169806       167.8889 
 614   0.0000       6.219909       169.2523 
 615   0.0000       6.261018       170.3710 
 616   0.0000       6.295996       171.3228 
 617   0.0000       6.335041       172.3852 
 618   0.0000       6.401166       174.1846 
 619   0.0000       6.418135       174.6463 
 620   0.0000       6.645251       180.8265 
 621   0.0000       6.743162       183.4908 
 622   0.0000       6.819153       185.5586 
 623   0.0000       6.844290       186.2426 
 624   0.0000       6.910104       188.0335 
 625   0.0000       6.917890       188.2454 
 626   0.0000       6.918394       188.2591 
 627   0.0000       6.924252       188.4185 
 628   0.0000       6.927655       188.5111 
 629   0.0000       6.930043       188.5761 
 630   0.0000       6.938642       188.8101 
 631   0.0000       6.941633       188.8914 
 632   0.0000       6.950765       189.1399 
 633   0.0000       6.977471       189.8666 
 634   0.0000       6.979253       189.9151 
 635   0.0000       6.986267       190.1060 
 636   0.0000       7.037472       191.4993 
 637   0.0000       7.052529       191.9091 
 638   0.0000       7.070601       192.4008 
 639   0.0000       7.085966       192.8189 
 640   0.0000       7.097122       193.1225 
 641   0.0000       7.146364       194.4625 
 642   0.0000       7.191115       195.6802 
 643   0.0000       7.211451       196.2336 
 644   0.0000       7.218480       196.4248 
 645   0.0000       7.236271       196.9090 
 646   0.0000       7.286912       198.2870 
 647   0.0000       7.323923       199.2941 
 648   0.0000       7.333199       199.5465 
 649   0.0000       7.353635       200.1026 
 650   0.0000       7.355729       200.1596 
 651   0.0000       7.448251       202.6772 
 652   0.0000       7.475647       203.4227 
 653   0.0000       7.490900       203.8378 
 654   0.0000       7.497703       204.0229 
 655   0.0000       7.535020       205.0383 
 656   0.0000       7.714842       209.9315 
 657   0.0000       7.897264       214.8955 
 658   0.0000       8.355486       227.3643 
 659   0.0000       8.375749       227.9157 
 660   0.0000       8.394200       228.4178 
 661   0.0000       8.430468       229.4047 
 662   0.0000       8.561667       232.9748 
 663   0.0000       8.594234       233.8610 
 664   0.0000       8.634941       234.9687 
 665   0.0000       8.700658       236.7569 
 666   0.0000       8.740974       237.8540 
 667   0.0000       8.752190       238.1592 
 668   0.0000       8.817007       239.9229 
 669   0.0000       8.853914       240.9272 
 670   0.0000       8.908258       242.4060 
 671   0.0000       8.969329       244.0678 
 672   0.0000       9.043544       246.0873 
 673   0.0000       9.058974       246.5072 
 674   0.0000       9.075331       246.9523 
 675   0.0000       9.111968       247.9493 
 676   0.0000       9.193967       250.1806 
 677   0.0000       9.316883       253.5253 
 678   0.0000      22.423405       610.1719 
 679   0.0000      22.521819       612.8499 
 680   0.0000      22.807458       620.6225 
 681   0.0000      22.880401       622.6074 
 682   0.0000      22.967091       624.9663 
 683   0.0000      23.060461       627.5071 
 684   0.0000      23.122838       629.2044 
 685   0.0000      23.219983       631.8479 
 686   0.0000      23.317313       634.4963 
 687   0.0000      23.423859       637.3956 
 688   0.0000      23.467908       638.5942 
 689   0.0000      23.747929       646.2140 
 690   0.0000      24.072746       655.0527 
 691   0.0000      32.178833       875.6306 
 692   0.0000      32.213497       876.5738 
 693   0.0000      32.239199       877.2732 
 694   0.0000      43.974302      1196.6016 
 695   0.0000      44.220895      1203.3117 
 696   0.0000      57.236893      1557.4950 
 697   0.0000      57.326071      1559.9217 
 698   0.0000      57.506979      1564.8445 
 699   0.0000      57.606383      1567.5494 

                    ********************************
                    * MULLIKEN POPULATION ANALYSIS *
                    ********************************

-----------------------
MULLIKEN ATOMIC CHARGES
-----------------------
   0 C :   -0.216825
   1 C :    0.413417
   2 C :   -0.217616
   3 C :   -0.114101
   4 C :    0.284968
   5 C :    0.234846
   6 F :   -0.163582
   7 F :   -0.156696
   8 C :    0.242437
   9 C :    0.191967
  10 C :   -0.041256
  11 C :    0.250770
  12 C :   -0.207689
  13 C :    0.364943
  14 F :   -0.153100
  15 F :   -0.151679
  16 O :   -0.256938
  17 C :   -0.248945
  18 H :    0.150575
  19 H :    0.168345
  20 H :    0.150158
  21 O :   -0.386974
  22 N :   -0.045784
  23 N :   -0.045596
  24 N :   -0.045645
Sum of atomic charges:   -0.0000000

--------------------------------
MULLIKEN REDUCED ORBITAL CHARGES
--------------------------------
  0 C s       :     3.262057  s :     3.262057
      pz      :     0.920250  p :     2.846090
      px      :     0.998271
      py      :     0.927568
      dz2     :     0.003946  d :     0.091420
      dxz     :     0.029762
      dyz     :     0.010707
      dx2y2   :     0.027559
      dxy     :     0.019446
      f0      :     0.002674  f :     0.017258
      f+1     :     0.001044
      f-1     :     0.000718
      f+2     :     0.000786
      f-2     :     0.003420
      f+3     :     0.006439
      f-3     :     0.002177
  1 C s       :     2.933691  s :     2.933691
      pz      :     1.044458  p :     2.537244
      px      :     0.779397
      py      :     0.713389
      dz2     :     0.005502  d :     0.108161
      dxz     :     0.020638
      dyz     :     0.015329
      dx2y2   :     0.033569
      dxy     :     0.033123
      f0      :     0.001691  f :     0.007487
      f+1     :     0.000825
      f-1     :     0.000861
      f+2     :     0.000425
      f-2     :     0.000518
      f+3     :     0.001790
      f-3     :     0.001378
  2 C s       :     3.254505  s :     3.254505
      pz      :     0.918733  p :     2.856188
      px      :     0.940865
      py      :     0.996590
      dz2     :     0.003371  d :     0.089265
      dxz     :     0.001879
      dyz     :     0.040528
      dx2y2   :     0.014031
      dxy     :     0.029456
      f0      :     0.002801  f :     0.017659
      f+1     :     0.000506
      f-1     :     0.001203
      f+2     :     0.003962
      f-2     :     0.000451
      f+3     :     0.005658
      f-3     :     0.003078
  3 C s       :     3.255795  s :     3.255795
      pz      :     0.921854  p :     2.714668
      px      :     0.873487
      py      :     0.919328
      dz2     :     0.009226  d :     0.133202
      dxz     :     0.039317
      dyz     :     0.028005
      dx2y2   :     0.033179
      dxy     :     0.023475
      f0      :     0.002242  f :     0.010436
      f+1     :     0.000933
      f-1     :     0.000862
      f+2     :     0.001269
      f-2     :     0.000863
      f+3     :     0.002950
      f-3     :     0.001317
  4 C s       :     3.095489  s :     3.095489
      pz      :     0.983996  p :     2.397083
      px      :     0.642936
      py      :     0.770152
      dz2     :     0.007918  d :     0.204314
      dxz     :     0.048240
      dyz     :     0.028934
      dx2y2   :     0.086376
      dxy     :     0.032846
      f0      :     0.003024  f :     0.018145
      f+1     :     0.001266
      f-1     :     0.001183
      f+2     :     0.000977
      f-2     :     0.003020
      f+3     :     0.006307
      f-3     :     0.002369
  5 C s       :     3.136498  s :     3.136498
      pz      :     0.986632  p :     2.419699
      px      :     0.823866
      py      :     0.609201
[...]
      f+3     :     0.017654
      f-3     :     0.010348
  2 C s       :     2.800723  s :     2.800723
      pz      :     0.862147  p :     2.845461
      px      :     0.842730
      py      :     1.140584
      dz2     :     0.045071  d :     0.426562
      dxz     :     0.005864
      dyz     :     0.135915
      dx2y2   :     0.117943
      dxy     :     0.121768
      f0      :     0.006457  f :     0.062596
      f+1     :     0.000991
      f-1     :     0.010152
      f+2     :     0.011301
      f-2     :     0.001605
      f+3     :     0.016275
      f-3     :     0.015815
  3 C s       :     2.690078  s :     2.690078
      pz      :     0.801550  p :     2.761734
      px      :     0.986477
      py      :     0.973708
      dz2     :     0.039000  d :     0.502617
      dxz     :     0.097713
      dyz     :     0.080995
      dx2y2   :     0.159090
      dxy     :     0.125820
      f0      :     0.004682  f :     0.055454
      f+1     :     0.004895
      f-1     :     0.004612
      f+2     :     0.007897
      f-2     :     0.007189
      f+3     :     0.016281
      f-3     :     0.009898
  4 C s       :     2.702931  s :     2.702931
      pz      :     0.905043  p :     2.702636
      px      :     0.845740
      py      :     0.951853
      dz2     :     0.056268  d :     0.677893
      dxz     :     0.135266
      dyz     :     0.074349
      dx2y2   :     0.209566
      dxy     :     0.202444
      f0      :     0.008835  f :     0.115569
      f+1     :     0.012302
      f-1     :     0.006926
      f+2     :     0.009962
      f-2     :     0.018181
      f+3     :     0.037501
      f-3     :     0.021862
  5 C s       :     2.702851  s :     2.702851
      pz      :     0.902796  p :     2.700572
      px      :     1.025454
      py      :     0.772321
      dz2     :     0.056432  d :     0.678734
      dxz     :     0.076904
      dyz     :     0.134089
      dx2y2   :     0.200957
      dxy     :     0.210351
      f0      :     0.008853  f :     0.115734
      f+1     :     0.005355
      f-1     :     0.013998
      f+2     :     0.019287
      f-2     :     0.008910
      f+3     :     0.037137
      f-3     :     0.022193
  6 F s       :     3.569676  s :     3.569676
      pz      :     1.792529  p :     5.127953
      px      :     1.583308
      py      :     1.752117
      dz2     :     0.004209  d :     0.033720
      dxz     :     0.007931
      dyz     :     0.002267
      dx2y2   :     0.008686
      dxy     :     0.010627
      f0      :     0.000170  f :     0.001658
      f+1     :     0.000229
      f-1     :     0.000077
      f+2     :     0.000146
      f-2     :     0.000222
      f+3     :     0.000405
      f-3     :     0.000408
  7 F s       :     3.569337  s :     3.569337
      pz      :     1.792029  p :     5.127507
      px      :     1.810210
      py      :     1.525268
      dz2     :     0.004187  d :     0.033719
      dxz     :     0.000343
      dyz     :     0.009846
      dx2y2   :     0.011668
      dxy     :     0.007675
      f0      :     0.000171  f :     0.001659
      f+1     :     0.000021
      f-1     :     0.000284
      f+2     :     0.000324
      f-2     :     0.000044
      f+3     :     0.000409
      f-3     :     0.000407
  8 C s       :     2.705067  s :     2.705067
      pz      :     0.882266  p :     2.682978
      px      :     1.028162
      py      :     0.772549
      dz2     :     0.055820  d :     0.685541
      dxz     :     0.082684
      dyz     :     0.134087
      dx2y2   :     0.201990
      dxy     :     0.210960
      f0      :     0.008882  f :     0.116660
      f+1     :     0.005318
      f-1     :     0.013924
      f+2     :     0.019476
      f-2     :     0.009140
      f+3     :     0.037561
      f-3     :     0.022359
  9 C s       :     2.704803  s :     2.704803
      pz      :     0.884812  p :     2.684511
      px      :     0.844949
      py      :     0.954750
      dz2     :     0.057026  d :     0.682368
      dxz     :     0.137060
      dyz     :     0.079228
      dx2y2   :     0.207441
      dxy     :     0.201612
      f0      :     0.008821  f :     0.116062
      f+1     :     0.012457
      f-1     :     0.006955
      f+2     :     0.010446
      f-2     :     0.018306
      f+3     :     0.037313
      f-3     :     0.021764
 10 C s       :     2.687137  s :     2.687137
      pz      :     0.838003  p :     2.794332
      px      :     0.989472
      py      :     0.966857
      dz2     :     0.039127  d :     0.498292
      dxz     :     0.089397
      dyz     :     0.075195
      dx2y2   :     0.168605
      dxy     :     0.125970
      f0      :     0.004674  f :     0.055834
      f+1     :     0.005046
      f-1     :     0.004565
      f+2     :     0.007697
      f-2     :     0.006560
      f+3     :     0.017139
      f-3     :     0.010153
 11 C s       :     2.707425  s :     2.707425
      pz      :     0.844189  p :     2.816758
      px      :     0.997380
      py      :     0.975189
      dz2     :     0.034177  d :     0.457393
      dxz     :     0.068134
      dyz     :     0.060748
      dx2y2   :     0.159106
      dxy     :     0.135228
      f0      :     0.004611  f :     0.052569
      f+1     :     0.004981
      f-1     :     0.004669
      f+2     :     0.005853
      f-2     :     0.005978
      f+3     :     0.016665
      f-3     :     0.009812
 12 C s       :     2.802438  s :     2.802438
      pz      :     0.867080  p :     2.848686
      px      :     0.841165
      py      :     1.140441
      dz2     :     0.045137  d :     0.424435
      dxz     :     0.007693
      dyz     :     0.125428
      dx2y2   :     0.118551
      dxy     :     0.127626
      f0      :     0.006363  f :     0.062735
      f+1     :     0.001029
      f-1     :     0.010248
      f+2     :     0.011038
      f-2     :     0.002177
      f+3     :     0.016071
      f-3     :     0.015808
 13 C s       :     2.732180  s :     2.732180
      pz      :     0.957043  p :     2.619760
      px      :     0.898072
      py      :     0.764646
      dz2     :     0.295538  d :     0.963735
      dxz     :     0.276108
      dyz     :     0.225415
      dx2y2   :     0.088464
      dxy     :     0.078210
      f0      :     0.043294  f :     0.155154
      f+1     :     0.028245
      f-1     :     0.023035
      f+2     :     0.026581
      f-2     :     0.022805
      f+3     :     0.005773
      f-3     :     0.005421
 14 F s       :     3.567595  s :     3.567595
      pz      :     1.787351  p :     5.122513
      px      :     1.809904
      py      :     1.525258
      dz2     :     0.004157  d :     0.033836
      dxz     :     0.000311
      dyz     :     0.009671
      dx2y2   :     0.011823
      dxy     :     0.007874
      f0      :     0.000170  f :     0.001671
      f+1     :     0.000022
      f-1     :     0.000280
      f+2     :     0.000319
      f-2     :     0.000041
      f+3     :     0.000423
      f-3     :     0.000415
 15 F s       :     3.567861  s :     3.567861
      pz      :     1.789712  p :     5.127430
      px      :     1.583281
      py      :     1.754437
      dz2     :     0.004113  d :     0.033482
      dxz     :     0.007843
      dyz     :     0.002267
      dx2y2   :     0.008646
      dxy     :     0.010613
      f0      :     0.000165  f :     0.001645
      f+1     :     0.000229
      f-1     :     0.000075
      f+2     :     0.000147
      f-2     :     0.000219
      f+3     :     0.000409
      f-3     :     0.000401
 16 O s       :     3.240229  s :     3.240229
      pz      :     1.514301  p :     4.360350
      px      :     1.353050
      py      :     1.492999
      dz2     :     0.024959  d :     0.111860
      dxz     :     0.030838
      dyz     :     0.016316
      dx2y2   :     0.019365
      dxy     :     0.020383
      f0      :     0.001596  f :     0.007045
      f+1     :     0.001227
      f-1     :     0.000882
      f+2     :     0.000826
      f-2     :     0.000962
      f+3     :     0.000775
      f-3     :     0.000776
 17 C s       :     2.864052  s :     2.864052
      pz      :     1.121653  p :     3.013543
      px      :     0.824391
      py      :     1.067499
      dz2     :     0.046044  d :     0.343965
      dxz     :     0.070329
      dyz     :     0.054054
      dx2y2   :     0.081821
      dxy     :     0.091716
      f0      :     0.006576  f :     0.051271
      f+1     :     0.007233
      f-1     :     0.002580
      f+2     :     0.006122
      f-2     :     0.004694
      f+3     :     0.013463
      f-3     :     0.010602
 18 H s       :     0.813713  s :     0.813713
      pz      :     0.017439  p :     0.063235
      px      :     0.020182
      py      :     0.025615
 19 H s       :     0.814669  s :     0.814669
      pz      :     0.036302  p :     0.062604
      px      :     0.011089
      py      :     0.015213
 20 H s       :     0.815221  s :     0.815221
      pz      :     0.024507  p :     0.063156
      px      :     0.008651
      py      :     0.029998
 21 O s       :     3.389647  s :     3.389647
      pz      :     1.501884  p :     4.399914
      px      :     1.534901
      py      :     1.363130
      dz2     :     0.027315  d :     0.068059
      dxz     :     0.021895
      dyz     :     0.013443
      dx2y2   :     0.002980
      dxy     :     0.002427
      f0      :     0.002154  f :     0.006443
      f+1     :     0.002081
      f-1     :     0.001074
      f+2     :     0.000597
      f-2     :     0.000468
      f+3     :     0.000038
      f-3     :     0.000032
 22 N s       :     3.297948  s :     3.297948
      pz      :     1.028274  p :     3.497957
      px      :     1.424381
      py      :     1.045302
      dz2     :     0.012459  d :     0.108995
      dxz     :     0.029197
      dyz     :     0.004025
      dx2y2   :     0.032571
      dxy     :     0.030744
      f0      :     0.001646  f :     0.016760
      f+1     :     0.002697
      f-1     :     0.000437
      f+2     :     0.002272
      f-2     :     0.001346
      f+3     :     0.004198
      f-3     :     0.004165
 23 N s       :     3.298010  s :     3.298010
      pz      :     1.020733  p :     3.498638
      px      :     1.007032
      py      :     1.470873
      dz2     :     0.012026  d :     0.108969
      dxz     :     0.001167
      dyz     :     0.031390
      dx2y2   :     0.033254
      dxy     :     0.031131
      f0      :     0.001691  f :     0.016747
      f+1     :     0.000269
      f-1     :     0.002806
      f+2     :     0.002928
      f-2     :     0.000422
      f+3     :     0.004331
      f-3     :     0.004299
 24 N s       :     3.298973  s :     3.298973
      pz      :     1.008115  p :     3.491508
      px      :     1.020140
      py      :     1.463252
      dz2     :     0.012183  d :     0.108751
      dxz     :     0.001646
      dyz     :     0.031331
      dx2y2   :     0.032749
      dxy     :     0.030841
      f0      :     0.001668  f :     0.016622
      f+1     :     0.000276
      f-1     :     0.002801
      f+2     :     0.002853
      f-2     :     0.000592
      f+3     :     0.004208
      f-3     :     0.004224


                      *****************************
                      * MAYER POPULATION ANALYSIS *
                      *****************************

  NA   - Mulliken gross atomic population
  ZA   - Total nuclear charge
  QA   - Mulliken gross atomic charge
  VA   - Mayer's total valence
  BVA  - Mayer's bonded valence
  FA   - Mayer's free valence

  ATOM       NA         ZA         QA         VA         BVA        FA
  0 C      6.2484     6.0000    -0.2484     4.0582     4.0582    -0.0000
  1 C      5.5650     6.0000     0.4350     3.6029     3.6029    -0.0000
  2 C      6.2344     6.0000    -0.2344     4.0480     4.0480    -0.0000
  3 C      6.1683     6.0000    -0.1683     4.0900     4.0900    -0.0000
  4 C      5.7210     6.0000     0.2790     3.8457     3.8457    -0.0000
  5 C      5.7699     6.0000     0.2301     3.9187     3.9187    -0.0000
  6 F      9.1642     9.0000    -0.1642     1.1472     1.1472    -0.0000
  7 F      9.1640     9.0000    -0.1640     1.1491     1.1491    -0.0000
  8 C      5.7457     6.0000     0.2543     3.8984     3.8984    -0.0000
  9 C      5.6796     6.0000     0.3204     3.8174     3.8174    -0.0000
 10 C      6.1767     6.0000    -0.1767     4.0661     4.0661    -0.0000
 11 C      5.6892     6.0000     0.3108     3.7019     3.7019    -0.0000
 12 C      6.2111     6.0000    -0.2111     4.0181     4.0181    -0.0000
 13 C      5.7059     6.0000     0.2941     4.2975     4.2975    -0.0000
 14 F      9.1587     9.0000    -0.1587     1.1583     1.1583    -0.0000
 15 F      9.1666     9.0000    -0.1666     1.1437     1.1437    -0.0000
 16 O      8.2359     8.0000    -0.2359     2.1549     2.1549    -0.0000
 17 C      6.2336     6.0000    -0.2336     3.8156     3.8156    -0.0000
 18 H      0.8341     1.0000     0.1659     0.9634     0.9634    -0.0000
 19 H      0.8398     1.0000     0.1602     0.9663     0.9663    -0.0000
 20 H      0.8395     1.0000     0.1605     0.9641     0.9641    -0.0000
 21 O      8.3402     8.0000    -0.3402     2.1679     2.1679    -0.0000
 22 N      7.0358     7.0000    -0.0358     3.1000     3.1000    -0.0000
 23 N      7.0386     7.0000    -0.0386     3.0999     3.0999    -0.0000
 24 N      7.0337     7.0000    -0.0337     3.0929     3.0929    -0.0000

  Mayer bond orders larger than 0.100000
B(  0-C ,  1-C ) :   0.9537 B(  0-C , 22-N ) :   2.9864 B(  1-C ,  2-C ) :   0.9495 
B(  1-C ,  3-C ) :   1.5679 B(  2-C , 23-N ) :   2.9882 B(  3-C ,  4-C ) :   1.0649 
B(  3-C ,  5-C ) :   1.0729 B(  4-C ,  6-F ) :   1.0054 B(  4-C ,  8-C ) :   1.7308 
B(  5-C ,  7-F ) :   1.0164 B(  5-C ,  9-C ) :   1.7409 B(  8-C , 10-C ) :   1.0732 
B(  8-C , 14-F ) :   1.0240 B(  9-C , 10-C ) :   1.0249 B(  9-C , 15-F ) :   0.9909 
B( 10-C , 11-C ) :   1.6775 B( 11-C , 12-C ) :   0.9500 B( 11-C , 13-C ) :   0.8891 
B( 12-C , 24-N ) :   2.9720 B( 13-C , 16-O ) :   1.2492 B( 13-C , 21-O ) :   2.0163 
B( 16-O , 17-C ) :   0.8589 B( 17-C , 18-H ) :   0.9671 B( 17-C , 19-H ) :   0.9654 
B( 17-C , 20-H ) :   0.9675 

-------
TIMINGS
-------

Total SCF time: 0 days 0 hours 16 min 5 sec 

Total time                  ....     965.984 sec
Sum of individual times     ....     964.445 sec  ( 99.8%)

Fock matrix formation       ....     959.755 sec  ( 99.4%)
  XC integration            ....       6.510 sec  (  0.7% of F)
    Basis function eval.    ....       1.330 sec  ( 20.4% of XC)
    Density eval.           ....       1.802 sec  ( 27.7% of XC)
    XC-Functional eval.     ....       0.427 sec  (  6.6% of XC)
    XC-Potential eval.      ....       2.628 sec  ( 40.4% of XC)
Diagonalization             ....       0.321 sec  (  0.0%)
Density matrix formation    ....       0.050 sec  (  0.0%)
Population analysis         ....       0.208 sec  (  0.0%)
Initial guess               ....       0.326 sec  (  0.0%)
Orbital Transformation      ....       0.000 sec  (  0.0%)
Orbital Orthonormalization  ....       0.289 sec  (  0.0%)
DIIS solution               ....       0.089 sec  (  0.0%)
SOSCF solution              ....       1.197 sec  (  0.1%)
Grid generation             ....       2.499 sec  (  0.3%)


-------------------------------------------------------------------------------
                          DFT DISPERSION CORRECTION                            
                                                                               
                              DFTD3 V3.1  Rev 1                                
                              USING zero damping                               
-------------------------------------------------------------------------------
The omegaB97X-D3 functional is recognized. Fit by Chai et al.
Active option DFTDOPT                   ...         3   

molecular C6(AA) [au] = 10318.720204 


            DFT-D V3
 parameters
 s6 scaling factor         :     1.0000 
 rs6 scaling factor        :     1.2810 
 s8 scaling factor         :     1.0000 
 rs8 scaling factor        :     1.0940 
 Damping factor alpha6     :    14.0000 
 Damping factor alpha8     :    16.0000 
 ad hoc parameters k1-k3   :    16.0000     1.3333    -4.0000 

 Edisp/kcal,au: -7.100171416346  -0.011314842170 
 E6   /kcal   :  -2.965830840 
 E8   /kcal   :  -4.134340577 
 % E8         :  58.228743140 

-------------------------   ----------------
Dispersion correction           -0.011314842
-------------------------   ----------------


-------------------------   --------------------
FINAL SINGLE POINT ENERGY     -1211.261092975074
-------------------------   --------------------

                                *** OPTIMIZATION RUN DONE ***

                            ***************************************
                            *     ORCA property calculations      *
                            ***************************************

                                    ---------------------
                                    Active property flags
                                    ---------------------
   (+) Dipole Moment


------------------------------------------------------------------------------
                       ORCA ELECTRIC PROPERTIES CALCULATION
------------------------------------------------------------------------------

Dipole Moment Calculation                       ... on
Quadrupole Moment Calculation                   ... off
Polarizability Calculation                      ... off
GBWName                                         ... F4-MCTCNQ.gbw
Electron density file                           ... F4-MCTCNQ.scfp
The origin for moment calculation is the CENTER OF MASS  = (-0.610060,  7.431558  0.141994)

-------------
DIPOLE MOMENT
-------------
                                X             Y             Z
Electronic contribution:    -14.83150       0.24538       1.12918
Nuclear contribution   :     17.27505      -0.57629      -1.66998
                        -----------------------------------------
Total Dipole Moment    :      2.44355      -0.33091      -0.54081
                        -----------------------------------------
Magnitude (a.u.)       :      2.52446
Magnitude (Debye)      :      6.41667



--------------------
Rotational spectrum 
--------------------
 
Rotational constants in cm-1:     0.017255     0.006226     0.004732 
Rotational constants in MHz :   517.290274   186.659943   141.859763 

 Dipole components along the rotational axes: 
x,y,z [a.u.] :     2.108868    -1.156744    -0.766501 
x,y,z [Debye]:     5.360316    -2.940210    -1.948291 

 
--------------------------------------------------------------------------
[[5746,1],0]: A high-performance Open MPI point-to-point messaging module
was unable to find any relevant network interfaces:

Module: OpenFabrics (openib)
  Host: compute-1-3

Another transport will be used instead, although this may result in
lower performance.

NOTE: You can disable this warning by setting the MCA parameter
btl_base_warn_component_unused to 0.
--------------------------------------------------------------------------
[compute-1-3.local:64918] 3 more processes have sent help message help-mpi-btl-base.txt / btl:no-nics
[compute-1-3.local:64918] Set MCA parameter "orte_base_help_aggregate" to 0 to see all help / error messages

Timings for individual modules:

Sum of individual times         ...    76914.248 sec (=1281.904 min)
GTO integral calculation        ...      114.735 sec (=   1.912 min)   0.1 %
SCF iterations                  ...    48737.657 sec (= 812.294 min)  63.4 %
SCF Gradient evaluation         ...    28052.759 sec (= 467.546 min)  36.5 %
Geometry relaxation             ...        9.096 sec (=   0.152 min)   0.0 %
                             ****ORCA TERMINATED NORMALLY****
TOTAL RUN TIME: 0 days 21 hours 22 minutes 6 seconds 577 msec
