Warning: no access to tty (Bad file descriptor).
Thus no job control in this shell.

                                 *****************
                                 * O   R   C   A *
                                 *****************

           --- An Ab Initio, DFT and Semiempirical electronic structure package ---

                  #######################################################
                  #                        -***-                        #
                  #          Department of theory and spectroscopy      #
                  #               Directorship: Frank Neese             #
                  #        Max Planck Institute fuer Kohlenforschung    #
                  #                Kaiser Wilhelm Platz 1               #
                  #                 D-45470 Muelheim/Ruhr               #
                  #                      Germany                        #
                  #                                                     #
                  #                  All rights reserved                #
                  #                        -***-                        #
                  #######################################################


                         Program Version 4.2.1 -  RELEASE  -


 With contributions from (in alphabetic order):
   Daniel Aravena         : Magnetic Suceptibility
   Michael Atanasov       : Ab Initio Ligand Field Theory (pilot matlab implementation)
   Alexander A. Auer      : GIAO ZORA, VPT2
   Ute Becker             : Parallelization
   Giovanni Bistoni       : ED, misc. LED, open-shell LED, HFLD
   Martin Brehm           : Molecular dynamics
   Dmytro Bykov           : SCF Hessian
   Vijay G. Chilkuri      : MRCI spin determinant printing, contributions to CSF-ICE
   Dipayan Datta          : RHF DLPNO-CCSD density
   Achintya Kumar Dutta   : EOM-CC, STEOM-CC
   Dmitry Ganyushin       : Spin-Orbit,Spin-Spin,Magnetic field MRCI
   Miquel Garcia          : C-PCM Hessian, Gaussian charge scheme
   Yang Guo               : DLPNO-NEVPT2, CIM, IAO-localization
   Andreas Hansen         : Spin unrestricted coupled pair/coupled cluster methods
   Benjamin Helmich-Paris : CASSCF linear response (MC-RPA)
   Lee Huntington         : MR-EOM, pCC
   Robert Izsak           : Overlap fitted RIJCOSX, COSX-SCS-MP3, EOM
   Christian Kollmar      : KDIIS, OOCD, Brueckner-CCSD(T), CCSD density
   Simone Kossmann        : Meta GGA functionals, TD-DFT gradient, OOMP2, MP2 Hessian
   Martin Krupicka        : AUTO-CI
   Lucas Lang             : DCDCAS
   Dagmar Lenk            : GEPOL surface, SMD
   Dimitrios Liakos       : Extrapolation schemes; Compound Job, initial MDCI parallelization
   Dimitrios Manganas     : Further ROCIS development; embedding schemes
   Dimitrios Pantazis     : SARC Basis sets
   Taras Petrenko         : DFT Hessian,TD-DFT gradient, ASA, ECA, R-Raman, ABS, FL, XAS/XES, NRVS
   Peter Pinski           : DLPNO-MP2, DLPNO-MP2 Gradient
   Christoph Reimann      : Effective Core Potentials
   Marius Retegan         : Local ZFS, SOC
   Christoph Riplinger    : Optimizer, TS searches, QM/MM, DLPNO-CCSD(T), (RO)-DLPNO pert. Triples
   Tobias Risthaus        : Range-separated hybrids, TD-DFT gradient, RPA, STAB
   Michael Roemelt        : Original ROCIS implementation
   Masaaki Saitow         : Open-shell DLPNO-CCSD energy and density
   Barbara Sandhoefer     : DKH picture change effects
   Avijit Sen             : IP-ROCIS
   Kantharuban Sivalingam : CASSCF convergence, NEVPT2, FIC-MRCI
   Bernardo de Souza      : ESD, SOC TD-DFT
   Georgi Stoychev        : AutoAux, RI-MP2 NMR
   Willem Van den Heuvel  : Paramagnetic NMR
   Boris Wezisla          : Elementary symmetry handling
   Frank Wennmohs         : Technical directorship


 We gratefully acknowledge several colleagues who have allowed us to
 interface, adapt or use parts of their codes:
   Stefan Grimme, W. Hujo, H. Kruse,             : VdW corrections, initial TS optimization,
                  C. Bannwarth                     DFT functionals, gCP, sTDA/sTD-DF
   Ed Valeev, F. Pavosevic, A. Kumar             : LibInt (2-el integral package), F12 methods
   Garnet Chan, S. Sharma, J. Yang, R. Olivares  : DMRG
   Ulf Ekstrom                                   : XCFun DFT Library
   Mihaly Kallay                                 : mrcc  (arbitrary order and MRCC methods)
   Andreas Klamt, Michael Diedenhofen            : otool_cosmo (COSMO solvation model)
   Jiri Pittner, Ondrej Demel                    : Mk-CCSD
   Frank Weinhold                                : gennbo (NPA and NBO analysis)
   Christopher J. Cramer and Donald G. Truhlar   : smd solvation model
   Lars Goerigk                                  : TD-DFT with DH, B97 family of functionals
   V. Asgeirsson, H. Jonsson                     : NEB implementation
   FAccTs GmbH                                   : IRC, NEB, NEB-TS, Multilevel, MM, QM/MM, CI optimization
   S Lehtola, MJT Oliveira, MAL Marques          : LibXC Library


 Your calculation uses the libint2 library for the computation of 2-el integrals
 For citations please refer to: http://libint.valeyev.net

 Your ORCA version has been built with support for libXC version: 4.2.3
 For citations please refer to: https://tddft.org/programs/libxc/

 This ORCA versions uses:
   CBLAS   interface :  Fast vector & matrix operations
   LAPACKE interface :  Fast linear algebra routines
   SCALAPACK package :  Parallel linear algebra routines


Your calculation utilizes the atom-pairwise dispersion correction
with the zero-damping scheme (D30)
Cite in your paper:
S.Grimme, J.Antony, S.Ehrlich and H.Krieg, J.Chem.Phys., 132, (2010), 154104 
   

XCFun DFT library Copyright 2009-2010 Ulf Ekstrom and contributors.
See http://admol.org/xcfun for more information. This is free soft-
ware; see the source code for copying conditions. There is ABSOLUTELY
NO WARRANTY; not even for MERCHANTABILITY or FITNESS FOR A PARTICULAR
PURPOSE. For details see the documentation. Scientific users of this 
library should cite U. Ekstrom, L. Visscher, R. Bast, A. J. Thorvald-
sen and K. Ruud; J.Chem.Theor.Comp. 2010, DOI: 10.1021/ct100117s
XCFun Version 0.99 
----- Orbital basis set information -----
Your calculation utilizes the basis: def2-TZVP
   F. Weigend and R. Ahlrichs, Phys. Chem. Chem. Phys. 7, 3297 (2005).

----- AuxJ basis set information -----
Your calculation utilizes the auxiliary basis: def2/J
   F. Weigend, Phys. Chem. Chem. Phys. 8, 1057 (2006).

================================================================================
                                        WARNINGS
                       Please study these warnings very carefully!
================================================================================


WARNING: Geometry Optimization
  ===> : Switching off AutoStart
         For restart on a previous wavefunction, please use MOREAD

INFO   : the flag for use of LIBINT has been found!

================================================================================
                                       INPUT FILE
================================================================================
NAME = N-DMBI-Me2.inp
|  1> # avogadro generated ORCA input file 
|  2> # Basic Mode
|  3> # 
|  4> ! wB97X-D3 OPT def2-TZVP def2/J CPCM
|  5> %cpcm
|  6>   epsilon 3
|  7> end
|  8> %pal
|  9>  nprocs 4
| 10> end
| 11> 
| 12> * xyz 0 1
| 13>    C        0.90987        2.14607        1.20757
| 14>    C        0.16600        0.94740        0.67784
| 15>    H        0.54306        2.40887        2.22069
| 16>    H        0.75543        3.01024        0.52639
| 17>    H        2.00301        1.95916        1.27003
| 18>    C       -2.04729        2.21333        0.83605
| 19>    C       -1.24925        0.98098        0.49850
| 20>    H       -3.12891        2.07430        0.62495
| 21>    H       -1.69095        3.06789        0.22201
| 22>    H       -1.93180        2.46190        1.91090
| 23>    C        0.89159       -0.21219        0.32136
| 24>    C       -1.91307       -0.14420       -0.03730
| 25>    C        0.19726       -1.29487       -0.22899
| 26>    H        1.96576       -0.23541        0.43368
| 27>    C       -1.15297       -1.25611       -0.40020
| 28>    H       -2.98230       -0.13408       -0.20560
| 29>    N        0.70439       -2.50717       -0.75830
| 30>    N       -1.58235       -2.42948       -1.05242
| 31>    C       -0.40227       -3.21290       -1.40810
| 32>    C       -0.47262       -4.70890       -1.10541
| 33>    H       -0.28351       -3.14304       -2.51192
| 34>    C        2.09783       -2.90544       -0.78111
| 35>    H        2.21782       -3.87456       -0.25342
| 36>    H        2.74578       -2.17174       -0.26533
| 37>    H        2.44421       -3.00168       -1.82986
| 38>    C       -2.94231       -2.68066       -1.48052
| 39>    H       -3.29327       -1.84898       -2.12529
| 40>    H       -3.60423       -2.75543       -0.59115
| 41>    H       -3.00454       -3.62555       -2.05912
| 42>    C        0.51408       -5.52452       -1.67875
| 43>    C       -1.57309       -6.73028       -0.29452
| 44>    C        0.46050       -6.91213       -1.58005
| 45>    H        1.31725       -5.08841       -2.25745
| 46>    C       -0.59625       -7.55716       -0.90485
| 47>    H        1.23590       -7.45559       -2.09498
| 48>    C       -1.51098       -5.33057       -0.39120
| 49>    H       -2.40235       -7.14336        0.25833
| 50>    H       -2.29489       -4.75057        0.07322
| 51>    N       -0.69112       -9.00305       -0.88220
| 52>    C        0.45445       -9.87084       -1.13134
| 53>    H        1.41620       -9.33586       -1.21161
| 54>    H        0.29128      -10.45425       -2.06337
| 55>    H        0.57404      -10.57909       -0.28467
| 56>    C       -1.95664       -9.69568       -0.67717
| 57>    H       -1.89819      -10.33573        0.22771
| 58>    H       -2.16682      -10.34227       -1.55725
| 59>    H       -2.82674       -9.02304       -0.58720
| 60> *
| 61> 
| 62> 
| 63>                          ****END OF INPUT****
================================================================================

                       *****************************
                       * Geometry Optimization Run *
                       *****************************

Geometry optimization settings:
Update method            Update   .... BFGS
Choice of coordinates    CoordSys .... Z-matrix Internals
Initial Hessian          InHess   .... Almoef's Model

Convergence Tolerances:
Energy Change            TolE     ....  5.0000e-06 Eh
Max. Gradient            TolMAXG  ....  3.0000e-04 Eh/bohr
RMS Gradient             TolRMSG  ....  1.0000e-04 Eh/bohr
Max. Displacement        TolMAXD  ....  4.0000e-03 bohr
RMS Displacement         TolRMSD  ....  2.0000e-03 bohr
Strict Convergence                ....  False
------------------------------------------------------------------------------
                        ORCA OPTIMIZATION COORDINATE SETUP
------------------------------------------------------------------------------

The optimization will be done in new redundant internal coordinates
Making redundant internal coordinates   ...  (new redundants) done
Evaluating the initial hessian          ...  (Almloef) done
Evaluating the coordinates              ...  done
Calculating the B-matrix                .... done
Calculating the G-matrix                .... done
Diagonalizing the G-matrix              .... done
Small eigenvalue found = 2.853e-03
Small eigenvalue found = 6.326e-03
Small eigenvalue found = 1.661e-02
Small eigenvalue found = 1.779e-02
Small eigenvalue found = 2.081e-02
Small eigenvalue found = 2.424e-02
Small eigenvalue found = 2.952e-02
The first mode is                       ....  115
The number of degrees of freedom        ....  135

    -----------------------------------------------------------------
                    Redundant Internal Coordinates


    -----------------------------------------------------------------
         Definition                    Initial Value    Approx d2E/dq
    -----------------------------------------------------------------
      1. B(C   1,C   0)                  1.5069         0.406651   
      2. B(H   2,C   0)                  1.1091         0.335742   
      3. B(H   3,C   0)                  1.1111         0.333184   
      4. B(H   4,C   0)                  1.1108         0.333656   
      5. B(C   6,C   5)                  1.5065         0.407282   
      6. B(C   6,C   1)                  1.4270         0.545465   
      7. B(H   7,C   5)                  1.1108         0.333655   
      8. B(H   8,C   5)                  1.1110         0.333378   
      9. B(H   9,C   5)                  1.1092         0.335519   
     10. B(C  10,C   1)                  1.4136         0.572952   
     11. B(C  11,C   6)                  1.4120         0.576269   
     12. B(C  12,C  10)                  1.3990         0.604497   
     13. B(H  13,C  10)                  1.0803         0.373196   
     14. B(C  14,C  12)                  1.3616         0.693521   
     15. B(C  14,C  11)                  1.3949         0.613613   
     16. B(H  15,C  11)                  1.0824         0.370239   
     17. B(N  16,C  12)                  1.4167         0.507326   
     18. B(N  17,C  14)                  1.4095         0.521004   
     19. B(C  18,N  17)                  1.4604         0.432031   
     20. B(C  18,N  16)                  1.4646         0.425490   
     21. B(C  19,C  18)                  1.5279         0.376419   
     22. B(H  20,C  18)                  1.1124         0.331671   
     23. B(C  21,N  16)                  1.4494         0.449859   
     24. B(H  22,C  21)                  1.1100         0.334620   
     25. B(H  23,C  21)                  1.1064         0.339010   
     26. B(H  24,C  21)                  1.1087         0.336247   
     27. B(C  25,N  17)                  1.4477         0.452699   
     28. B(H  26,C  25)                  1.1093         0.335427   
     29. B(H  27,C  25)                  1.1112         0.333151   
     30. B(H  28,C  25)                  1.1097         0.334941   
     31. B(C  29,C  19)                  1.4027         0.596344   
     32. B(C  31,C  29)                  1.3921         0.619887   
     33. B(H  32,C  29)                  1.0817         0.371190   
     34. B(C  33,C  31)                  1.4102         0.580099   
     35. B(C  33,C  30)                  1.4179         0.563924   
     36. B(H  34,C  31)                  1.0778         0.376546   
     37. B(C  35,C  30)                  1.4044         0.592562   
     38. B(C  35,C  19)                  1.4053         0.590730   
     39. B(H  36,C  30)                  1.0789         0.375135   
     40. B(H  37,C  35)                  1.0801         0.373447   
     41. B(N  38,C  33)                  1.4492         0.450260   
     42. B(C  39,N  38)                  1.4586         0.434968   
     43. B(H  40,C  39)                  1.1035         0.342735   
     44. B(H  41,C  39)                  1.1116         0.332621   
     45. B(H  42,C  39)                  1.1103         0.334220   
     46. B(C  43,N  38)                  1.4572         0.437247   
     47. B(H  44,C  43)                  1.1099         0.334708   
     48. B(H  45,C  43)                  1.1121         0.332004   
     49. B(H  46,C  43)                  1.1035         0.342733   
     50. A(C   1,C   0,H   2)          110.2639         0.325108   
     51. A(C   1,C   0,H   3)          109.5438         0.324700   
     52. A(C   1,C   0,H   4)          111.8220         0.324776   
     53. A(H   3,C   0,H   4)          107.5855         0.283927   
     54. A(H   2,C   0,H   4)          108.3003         0.284265   
     55. A(H   2,C   0,H   3)          109.2536         0.284202   
     56. A(C   0,C   1,C   6)          121.0008         0.393687   
     57. A(C   0,C   1,C  10)          119.1955         0.397097   
     58. A(C   6,C   1,C  10)          119.7817         0.418272   
     59. A(C   6,C   5,H   7)          111.7690         0.324858   
     60. A(H   8,C   5,H   9)          109.2565         0.284199   
     61. A(H   7,C   5,H   9)          108.2756         0.284235   
     62. A(C   6,C   5,H   9)          110.1986         0.325156   
     63. A(H   7,C   5,H   8)          107.6717         0.283953   
     64. A(C   6,C   5,H   8)          109.6012         0.324814   
     65. A(C   1,C   6,C  11)          119.6832         0.418702   
     66. A(C   1,C   6,C   5)          121.0963         0.393794   
     67. A(C   5,C   6,C  11)          119.1988         0.397608   
     68. A(C  12,C  10,H  13)          121.1828         0.353531   
     69. A(C   1,C  10,H  13)          120.1199         0.350341   
     70. A(C   1,C  10,C  12)          118.6396         0.426020   
     71. A(C  14,C  11,H  15)          120.3485         0.353951   
     72. A(C   6,C  11,H  15)          121.0600         0.350212   
     73. A(C   6,C  11,C  14)          118.5378         0.427606   
     74. A(C  14,C  12,N  16)          109.4120         0.424439   
     75. A(C  10,C  12,N  16)          129.1656         0.414169   
     76. A(C  10,C  12,C  14)          121.3055         0.440907   
     77. A(C  12,C  14,N  17)          109.6692         0.426465   
     78. A(C  11,C  14,N  17)          128.1691         0.417243   
     79. A(C  11,C  14,C  12)          122.0283         0.442102   
     80. A(C  12,N  16,C  18)          107.9162         0.386854   
     81. A(C  18,N  16,C  21)          125.9476         0.378859   
     82. A(C  12,N  16,C  21)          125.8141         0.390633   
     83. A(C  18,N  17,C  25)          126.4394         0.380276   
     84. A(C  14,N  17,C  25)          124.5732         0.392887   
     85. A(C  14,N  17,C  18)          108.2472         0.389690   
     86. A(C  19,C  18,H  20)          105.2472         0.320376   
     87. A(N  17,C  18,H  20)          107.1125         0.325742   
     88. A(N  16,C  18,H  20)          109.2280         0.324926   
     89. A(N  17,C  18,C  19)          116.0892         0.370679   
     90. A(N  16,C  18,C  19)          114.7519         0.369708   
     91. A(N  16,C  18,N  17)          104.1241         0.376218   
     92. A(C  18,C  19,C  35)          124.6002         0.393857   
     93. A(C  18,C  19,C  29)          117.1264         0.394511   
     94. A(C  29,C  19,C  35)          118.0525         0.427318   
     95. A(H  23,C  21,H  24)          108.3955         0.285036   
     96. A(H  22,C  21,H  24)          109.8861         0.284459   
     97. A(N  16,C  21,H  24)          109.8224         0.328661   
     98. A(H  22,C  21,H  23)          107.1005         0.284821   
     99. A(N  16,C  21,H  23)          111.9289         0.329105   
    100. A(N  16,C  21,H  22)          109.6549         0.328398   
    101. A(H  27,C  25,H  28)          109.0637         0.284093   
    102. A(H  26,C  25,H  28)          108.5162         0.284393   
    103. A(N  17,C  25,H  28)          110.7684         0.328791   
    104. A(H  26,C  25,H  27)          109.0986         0.284156   
    105. A(N  17,C  25,H  27)          109.5471         0.328500   
    106. A(N  17,C  25,H  26)          109.8157         0.328870   
    107. A(C  31,C  29,H  32)          117.9269         0.354716   
    108. A(C  19,C  29,H  32)          120.4329         0.352398   
    109. A(C  19,C  29,C  31)          121.5688         0.431027   
    110. A(C  35,C  30,H  36)          116.7994         0.352649   
    111. A(C  33,C  30,H  36)          121.7916         0.349709   
    112. A(C  33,C  30,C  35)          121.4071         0.423298   
    113. A(C  33,C  31,H  34)          122.4934         0.351606   
    114. A(C  29,C  31,H  34)          116.1683         0.355579   
    115. A(C  29,C  31,C  33)          121.2449         0.428896   
    116. A(C  30,C  33,C  31)          117.1042         0.421694   
    117. A(C  31,C  33,N  38)          120.8575         0.402567   
    118. A(C  30,C  33,N  38)          122.0068         0.400566   
    119. A(C  30,C  35,H  37)          118.2613         0.352380   
    120. A(C  19,C  35,H  37)          121.1487         0.352195   
    121. A(C  19,C  35,C  30)          120.5686         0.426831   
    122. A(C  39,N  38,C  43)          115.0458         0.378439   
    123. A(C  33,N  38,C  43)          122.2291         0.380711   
    124. A(C  33,N  38,C  39)          122.6510         0.380367   
    125. A(H  41,C  39,H  42)          108.6867         0.283927   
    126. A(H  40,C  39,H  42)          105.7153         0.285253   
    127. A(N  38,C  39,H  42)          109.5031         0.326516   
    128. A(H  40,C  39,H  41)          108.7474         0.285040   
    129. A(N  38,C  39,H  41)          109.8879         0.326259   
    130. A(N  38,C  39,H  40)          114.1118         0.327873   
    131. A(H  45,C  43,H  46)          105.6590         0.284958   
    132. A(H  44,C  43,H  46)          109.0611         0.285318   
    133. A(N  38,C  43,H  46)          113.9879         0.328155   
    134. A(H  44,C  43,H  45)          108.6538         0.283910   
    135. A(N  38,C  43,H  45)          109.2170         0.326440   
    136. A(N  38,C  43,H  44)          110.0650         0.326876   
    137. D(C   6,C   1,C   0,H   3)    -59.8681         0.012255   
    138. D(C  10,C   1,C   0,H   4)     -0.7538         0.012255   
    139. D(C   6,C   1,C   0,H   2)     60.4004         0.012255   
    140. D(C   6,C   1,C   0,H   4)   -179.0435         0.012255   
    141. D(C  10,C   1,C   0,H   2)   -121.3098         0.012255   
    142. D(C  10,C   1,C   0,H   3)    118.4217         0.012255   
    143. D(C   5,C   6,C   1,C  10)   -178.4561         0.020343   
    144. D(C  11,C   6,C   5,H   9)    121.3945         0.012292   
    145. D(C   5,C   6,C   1,C   0)     -0.1763         0.020343   
    146. D(C  11,C   6,C   1,C   0)    178.1150         0.020343   
    147. D(C   1,C   6,C   5,H   9)    -60.3060         0.012292   
    148. D(C   1,C   6,C   5,H   8)     59.9615         0.012292   
    149. D(C  11,C   6,C   5,H   8)   -118.3380         0.012292   
    150. D(C   1,C   6,C   5,H   7)    179.2488         0.012292   
    151. D(C  11,C   6,C   1,C  10)     -0.1648         0.020343   
    152. D(C  11,C   6,C   5,H   7)      0.9493         0.012292   
    153. D(H  13,C  10,C   1,C   6)    178.6019         0.022529   
    154. D(H  13,C  10,C   1,C   0)      0.2909         0.022529   
    155. D(C  12,C  10,C   1,C   0)   -176.9791         0.022529   
    156. D(C  12,C  10,C   1,C   6)      1.3319         0.022529   
    157. D(C  14,C  11,C   6,C   5)    177.1953         0.022802   
    158. D(H  15,C  11,C   6,C   1)   -178.4740         0.022802   
    159. D(H  15,C  11,C   6,C   5)     -0.1501         0.022802   
    160. D(C  14,C  11,C   6,C   1)     -1.1286         0.022802   
    161. D(N  16,C  12,C  10,H  13)     -2.8306         0.025212   
    162. D(C  14,C  12,C  10,H  13)   -178.4642         0.025212   
    163. D(C  14,C  12,C  10,C   1)     -1.2244         0.025212   
    164. D(N  16,C  12,C  10,C   1)    174.4092         0.025212   
    165. D(C  12,C  14,C  11,H  15)    178.6513         0.026022   
    166. D(C  12,C  14,C  11,C   6)      1.2864         0.026022   
    167. D(N  17,C  14,C  11,C   6)   -174.0665         0.026022   
    168. D(N  17,C  14,C  12,N  16)     -0.3888         0.033822   
    169. D(N  17,C  14,C  12,C  10)    176.0230         0.033822   
    170. D(C  11,C  14,C  12,N  16)   -176.5102         0.033822   
    171. D(C  11,C  14,C  12,C  10)     -0.0985         0.033822   
    172. D(N  17,C  14,C  11,H  15)      3.2983         0.026022   
    173. D(C  21,N  16,C  12,C  14)    179.0494         0.020367   
    174. D(C  21,N  16,C  12,C  10)      3.0042         0.020367   
    175. D(C  18,N  16,C  12,C  14)      5.2690         0.020367   
    176. D(C  18,N  16,C  12,C  10)   -170.7762         0.020367   
    177. D(C  25,N  17,C  14,C  12)   -175.3389         0.021524   
    178. D(C  25,N  17,C  14,C  11)      0.4781         0.021524   
    179. D(C  18,N  17,C  14,C  12)     -4.6686         0.021524   
    180. D(C  18,N  17,C  14,C  11)    171.1484         0.021524   
    181. D(H  20,C  18,N  17,C  25)     62.3322         0.015914   
    182. D(C  19,C  18,N  17,C  25)    -54.8704         0.015914   
    183. D(C  19,C  18,N  17,C  14)    134.6807         0.015914   
    184. D(N  16,C  18,N  17,C  25)    177.9773         0.015914   
    185. D(N  16,C  18,N  17,C  14)      7.5284         0.015914   
    186. D(H  20,C  18,N  16,C  21)    -67.3533         0.015436   
    187. D(H  20,C  18,N  16,C  12)    106.4165         0.015436   
    188. D(C  19,C  18,N  16,C  21)     50.5190         0.015436   
    189. D(C  19,C  18,N  16,C  12)   -135.7111         0.015436   
    190. D(H  20,C  18,N  17,C  14)   -108.1167         0.015914   
    191. D(N  17,C  18,N  16,C  21)    178.4976         0.015436   
    192. D(N  17,C  18,N  16,C  12)     -7.7325         0.015436   
    193. D(C  35,C  19,C  18,H  20)   -125.5435         0.010586   
    194. D(C  35,C  19,C  18,N  17)     -7.3107         0.010586   
    195. D(C  35,C  19,C  18,N  16)    114.3542         0.010586   
    196. D(C  29,C  19,C  18,H  20)     48.9341         0.010586   
    197. D(C  29,C  19,C  18,N  17)    167.1668         0.010586   
    198. D(C  29,C  19,C  18,N  16)    -71.1683         0.010586   
    199. D(H  22,C  21,N  16,C  12)    122.5949         0.017264   
    200. D(H  24,C  21,N  16,C  18)     56.1224         0.017264   
    201. D(H  24,C  21,N  16,C  12)   -116.5619         0.017264   
    202. D(H  23,C  21,N  16,C  18)    176.5688         0.017264   
    203. D(H  23,C  21,N  16,C  12)      3.8844         0.017264   
    204. D(H  22,C  21,N  16,C  18)    -64.7208         0.017264   
    205. D(H  28,C  25,N  17,C  18)      5.2589         0.017485   
    206. D(H  28,C  25,N  17,C  14)    174.2255         0.017485   
    207. D(H  27,C  25,N  17,C  18)    125.6118         0.017485   
    208. D(H  27,C  25,N  17,C  14)    -65.4216         0.017485   
    209. D(H  26,C  25,N  17,C  18)   -114.5871         0.017485   
    210. D(H  26,C  25,N  17,C  14)     54.3796         0.017485   
    211. D(H  32,C  29,C  19,C  35)    178.4728         0.024500   
    212. D(H  32,C  29,C  19,C  18)      3.6227         0.024500   
    213. D(C  31,C  29,C  19,C  35)      1.6094         0.024500   
    214. D(C  31,C  29,C  19,C  18)   -173.2408         0.024500   
    215. D(H  34,C  31,C  29,H  32)      0.0533         0.026589   
    216. D(H  34,C  31,C  29,C  19)    176.9924         0.026589   
    217. D(C  33,C  31,C  29,H  32)   -176.5155         0.026589   
    218. D(C  33,C  31,C  29,C  19)      0.4237         0.026589   
    219. D(N  38,C  33,C  31,H  34)     -0.4382         0.023120   
    220. D(N  38,C  33,C  31,C  29)    175.9104         0.023120   
    221. D(C  30,C  33,C  31,H  34)   -178.4362         0.023120   
    222. D(C  30,C  33,C  31,C  29)     -2.0876         0.023120   
    223. D(N  38,C  33,C  30,H  36)      3.2889         0.021795   
    224. D(N  38,C  33,C  30,C  35)   -176.2049         0.021795   
    225. D(C  31,C  33,C  30,H  36)   -178.7379         0.021795   
    226. D(C  31,C  33,C  30,C  35)      1.7684         0.021795   
    227. D(H  37,C  35,C  30,H  36)     -0.9608         0.024174   
    228. D(H  37,C  35,C  30,C  33)    178.5572         0.024174   
    229. D(C  19,C  35,C  30,H  36)   -179.2949         0.024174   
    230. D(C  19,C  35,C  30,C  33)      0.2230         0.024174   
    231. D(H  37,C  35,C  19,C  29)    179.8011         0.024018   
    232. D(H  37,C  35,C  19,C  18)     -5.7684         0.024018   
    233. D(C  30,C  35,C  19,C  29)     -1.9133         0.024018   
    234. D(C  30,C  35,C  19,C  18)    172.5172         0.024018   
    235. D(C  43,N  38,C  33,C  31)   -155.7413         0.015966   
    236. D(C  43,N  38,C  33,C  30)     22.1571         0.015966   
    237. D(C  39,N  38,C  33,C  31)     20.9696         0.015966   
    238. D(C  39,N  38,C  33,C  30)   -161.1321         0.015966   
    239. D(H  42,C  39,N  38,C  43)    -57.5439         0.016131   
    240. D(H  42,C  39,N  38,C  33)    125.5270         0.016131   
    241. D(H  41,C  39,N  38,C  43)     61.7690         0.016131   
    242. D(H  41,C  39,N  38,C  33)   -115.1601         0.016131   
    243. D(H  40,C  39,N  38,C  43)   -175.7947         0.016131   
    244. D(H  40,C  39,N  38,C  33)      7.2763         0.016131   
    245. D(H  46,C  43,N  38,C  39)   -174.4171         0.016301   
    246. D(H  46,C  43,N  38,C  33)      2.5263         0.016301   
    247. D(H  45,C  43,N  38,C  39)    -56.5149         0.016301   
    248. D(H  45,C  43,N  38,C  33)    120.4285         0.016301   
    249. D(H  44,C  43,N  38,C  39)     62.6896         0.016301   
    250. D(H  44,C  43,N  38,C  33)   -120.3670         0.016301   
    -----------------------------------------------------------------

Number of atoms                         .... 47
Number of degrees of freedom            .... 250

         *************************************************************
         *                GEOMETRY OPTIMIZATION CYCLE   1            *
         *************************************************************
---------------------------------
CARTESIAN COORDINATES (ANGSTROEM)
---------------------------------
  C      0.909870    2.146070    1.207570
  C      0.166000    0.947400    0.677840
  H      0.543060    2.408870    2.220690
  H      0.755430    3.010240    0.526390
  H      2.003010    1.959160    1.270030
  C     -2.047290    2.213330    0.836050
  C     -1.249250    0.980980    0.498500
  H     -3.128910    2.074300    0.624950
  H     -1.690950    3.067890    0.222010
  H     -1.931800    2.461900    1.910900
  C      0.891590   -0.212190    0.321360
  C     -1.913070   -0.144200   -0.037300
  C      0.197260   -1.294870   -0.228990
  H      1.965760   -0.235410    0.433680
  C     -1.152970   -1.256110   -0.400200
  H     -2.982300   -0.134080   -0.205600
  N      0.704390   -2.507170   -0.758300
  N     -1.582350   -2.429480   -1.052420
  C     -0.402270   -3.212900   -1.408100
  C     -0.472620   -4.708900   -1.105410
  H     -0.283510   -3.143040   -2.511920
  C      2.097830   -2.905440   -0.781110
  H      2.217820   -3.874560   -0.253420
  H      2.745780   -2.171740   -0.265330
  H      2.444210   -3.001680   -1.829860
  C     -2.942310   -2.680660   -1.480520
  H     -3.293270   -1.848980   -2.125290
  H     -3.604230   -2.755430   -0.591150
  H     -3.004540   -3.625550   -2.059120
  C      0.514080   -5.524520   -1.678750
  C     -1.573090   -6.730280   -0.294520
  C      0.460500   -6.912130   -1.580050
  H      1.317250   -5.088410   -2.257450
  C     -0.596250   -7.557160   -0.904850
  H      1.235900   -7.455590   -2.094980
  C     -1.510980   -5.330570   -0.391200
  H     -2.402350   -7.143360    0.258330
  H     -2.294890   -4.750570    0.073220
  N     -0.691120   -9.003050   -0.882200
  C      0.454450   -9.870840   -1.131340
  H      1.416200   -9.335860   -1.211610
  H      0.291280  -10.454250   -2.063370
  H      0.574040  -10.579090   -0.284670
  C     -1.956640   -9.695680   -0.677170
  H     -1.898190  -10.335730    0.227710
  H     -2.166820  -10.342270   -1.557250
  H     -2.826740   -9.023040   -0.587200

----------------------------
CARTESIAN COORDINATES (A.U.)
----------------------------
  NO LB      ZA    FRAG     MASS         X           Y           Z
   0 C     6.0000    0    12.011    1.719405    4.055485    2.281977
   1 C     6.0000    0    12.011    0.313695    1.790327    1.280932
   2 H     1.0000    0     1.008    1.026235    4.552105    4.196496
   3 H     1.0000    0     1.008    1.427556    5.688529    0.994733
   4 H     1.0000    0     1.008    3.785140    3.702276    2.400009
   5 C     6.0000    0    12.011   -3.868817    4.182588    1.579906
   6 C     6.0000    0    12.011   -2.360740    1.853784    0.942028
   7 H     1.0000    0     1.008   -5.912783    3.919859    1.180984
   8 H     1.0000    0     1.008   -3.195432    5.797472    0.419538
   9 H     1.0000    0     1.008   -3.650573    4.652317    3.611078
  10 C     6.0000    0    12.011    1.684861   -0.400981    0.607282
  11 C     6.0000    0    12.011   -3.615178   -0.272499   -0.070487
  12 C     6.0000    0    12.011    0.372767   -2.446950   -0.432728
  13 H     1.0000    0     1.008    3.714748   -0.444860    0.819536
  14 C     6.0000    0    12.011   -2.178798   -2.373704   -0.756268
  15 H     1.0000    0     1.008   -5.635730   -0.253374   -0.388528
  16 N     7.0000    0    14.007    1.331104   -4.737865   -1.432979
  17 N     7.0000    0    14.007   -2.990208   -4.591052   -1.988786
  18 C     6.0000    0    12.011   -0.760180   -6.071501   -2.660923
  19 C     6.0000    0    12.011   -0.893122   -8.898531   -2.088922
  20 H     1.0000    0     1.008   -0.535756   -5.939485   -4.746841
  21 C     6.0000    0    12.011    3.964324   -5.490486   -1.476084
  22 H     1.0000    0     1.008    4.191072   -7.321857   -0.478894
  23 H     1.0000    0     1.008    5.188772   -4.103994   -0.501401
  24 H     1.0000    0     1.008    4.618888   -5.672353   -3.457934
  25 C     6.0000    0    12.011   -5.560160   -5.065713   -2.797777
  26 H     1.0000    0     1.008   -6.223378   -3.494066   -4.016216
  27 H     1.0000    0     1.008   -6.811008   -5.207008   -1.117112
  28 H     1.0000    0     1.008   -5.677758   -6.851297   -3.891173
  29 C     6.0000    0    12.011    0.971470  -10.439830   -3.172378
  30 C     6.0000    0    12.011   -2.972709  -12.718386   -0.556562
  31 C     6.0000    0    12.011    0.870219  -13.062033   -2.985862
  32 H     1.0000    0     1.008    2.489242   -9.615701   -4.265962
  33 C     6.0000    0    12.011   -1.126749  -14.280963   -1.709919
  34 H     1.0000    0     1.008    2.335513  -14.089023   -3.958938
  35 C     6.0000    0    12.011   -2.855338  -10.073317   -0.739261
  36 H     1.0000    0     1.008   -4.539784  -13.498994    0.488173
  37 H     1.0000    0     1.008   -4.336714   -8.977276    0.138366
  38 N     7.0000    0    14.007   -1.306028  -17.013299   -1.667116
  39 C     6.0000    0    12.011    0.858786  -18.653184   -2.137923
  40 H     1.0000    0     1.008    2.676230  -17.642219   -2.289611
  41 H     1.0000    0     1.008    0.550439  -19.755669   -3.899204
  42 H     1.0000    0     1.008    1.084778  -19.991583   -0.537948
  43 C     6.0000    0    12.011   -3.697514  -18.322180   -1.279666
  44 H     1.0000    0     1.008   -3.587059  -19.531699    0.430310
  45 H     1.0000    0     1.008   -4.094696  -19.544058   -2.942776
  46 H     1.0000    0     1.008   -5.341764  -17.051074   -1.109647

--------------------------------
INTERNAL COORDINATES (ANGSTROEM)
--------------------------------
 C      0   0   0     0.000000000000     0.00000000     0.00000000
 C      1   0   0     1.506906174485     0.00000000     0.00000000
 H      1   2   0     1.109065169636   110.26392196     0.00000000
 H      1   2   3     1.111147017680   109.54376990   239.73152086
 H      1   2   3     1.110761747316   111.82201119   120.55607703
 C      2   1   3     2.554654926424    90.67214003    60.31137054
 C      2   1   3     1.426962863742   121.00082446    60.40040893
 H      6   2   1     1.110762969900   140.34040829   178.75574250
 H      6   2   1     1.110988798683    93.95952308    54.68156009
 H      6   2   1     1.109246369162    94.63749358   304.96989311
 C      2   1   3     1.413579784306   119.19549331   238.69015626
 C      7   2   1     1.412008733967   119.68318532   178.11501531
 C     11   2   1     1.398990798326   118.63963515   183.02089378
 H     11   2   1     1.080275955347   120.11985397     0.29091200
 C     13  11   2     1.361593277965   121.30551291   358.77561839
 H     12   7   2     1.082441729286   121.06000113   181.52603511
 N     13  11   2     1.416693757663   129.16561463   174.40922382
 N     15  13  11     1.409452116853   109.66920573   176.02296047
 C     18  15  13     1.460425953344   108.24718233   355.33136264
 C     19  18  15     1.527935325398   116.08915356   134.68074599
 H     19  18  15     1.112386151298   107.11246629   251.88332155
 C     17  13  11     1.449418615377   125.81409863     3.00424038
 H     22  17  13     1.109976536058   109.65491080   122.59486945
 H     22  17  13     1.106428443642   111.92894106     3.88443564
 H     22  17  13     1.108655854853   109.82240196   243.43811197
 C     18  15  13     1.447705841668   124.57315007   184.66105754
 H     26  18  15     1.109320917003   109.81566687    54.37956417
 H     26  18  15     1.111173990066   109.54711370   294.57839643
 H     26  18  15     1.109715118848   110.76843473   174.22546781
 C     20  19  18     1.402687288743   117.12637000   167.16677532
 C     20  19  18     2.440195467048   153.85079775     1.10954820
 C     30  20  19     1.392147268970   121.56880729   186.75924161
 H     30  20  19     1.081742885810   120.43287732     3.62265996
 C     32  30  20     1.410205411775   121.24488840     0.42369938
 H     32  30  20     1.077843604843   116.16825544   176.99244259
 C     31  20  19     1.404419011050    29.72552708   345.92249659
 H     31  20  19     1.078865309712   146.52149229   347.06342642
 H     36  31  20     1.080092970304   118.26127572   178.33416794
 N     34  32  30     1.449176052624   120.85747587   175.91037937
 C     39  34  32     1.458581793593   122.65095810    20.96957438
 H     40  39  34     1.103453640077   114.11175766     7.27626823
 H     40  39  34     1.111607663657   109.88794536   244.83994614
 H     40  39  34     1.110301724533   109.50310772   125.52703873
 C     39  34  32     1.457159733248   122.22905190   204.25874876
 H     44  39  34     1.109904599234   110.06499811   239.63299506
 H     44  39  34     1.112112884063   109.21702930   120.42853189
 H     44  39  34     1.103455110324   113.98786185     2.52630548

---------------------------
INTERNAL COORDINATES (A.U.)
---------------------------
 C      0   0   0     0.000000000000     0.00000000     0.00000000
 C      1   0   0     2.847639979291     0.00000000     0.00000000
 H      1   2   0     2.095829435283   110.26392196     0.00000000
 H      1   2   3     2.099763557939   109.54376990   239.73152086
 H      1   2   3     2.099035502463   111.82201119   120.55607703
 C      2   1   3     4.827598177613    90.67214003    60.31137054
 C      2   1   3     2.696569015749   121.00082446    60.40040893
 H      6   2   1     2.099037812811   140.34040829   178.75574250
 H      6   2   1     2.099464567366    93.95952308    54.68156009
 H      6   2   1     2.096171852763    94.63749358   304.96989311
 C      2   1   3     2.671278660787   119.19549331   238.69015626
 C      7   2   1     2.668309805903   119.68318532   178.11501531
 C     11   2   1     2.643709472711   118.63963515   183.02089378
 H     11   2   1     2.041425704665   120.11985397     0.29091200
 C     13  11   2     2.573038401142   121.30551291   358.77561839
 H     12   7   2     2.045518424279   121.06000113   181.52603511
 N     13  11   2     2.677163217618   129.16561463   174.40922382
 N     15  13  11     2.663478499727   109.66920573   176.02296047
 C     18  15  13     2.759805090691   108.24718233   355.33136264
 C     19  18  15     2.887379315347   116.08915356   134.68074599
 H     19  18  15     2.102105181120   107.11246629   251.88332155
 C     17  13  11     2.739004236469   125.81409863     3.00424038
 H     22  17  13     2.097551668229   109.65491080   122.59486945
 H     22  17  13     2.090846745264   111.92894106     3.88443564
 H     22  17  13     2.095055942441   109.82240196   243.43811197
 C     18  15  13     2.735767563231   124.57315007   184.66105754
 H     26  18  15     2.096312727766   109.81566687    54.37956417
 H     26  18  15     2.099814528362   109.54711370   294.57839643
 H     26  18  15     2.097057661295   110.76843473   174.22546781
 C     20  19  18     2.650694827256   117.12637000   167.16677532
 C     20  19  18     4.611301145956   153.85079775     1.10954820
 C     30  20  19     2.630777076439   121.56880729   186.75924161
 H     30  20  19     2.044197801498   120.43287732     3.62265996
 C     32  30  20     2.664902020829   121.24488840     0.42369938
 H     32  30  20     2.036829228351   116.16825544   176.99244259
 C     31  20  19     2.653967308158    29.72552708   345.92249659
 H     31  20  19     2.038759970744   146.52149229   347.06342642
 H     36  31  20     2.041079913048   118.26127572   178.33416794
 N     34  32  30     2.738545859297   120.85747587   175.91037937
 C     39  34  32     2.756320133814   122.65095810    20.96957438
 H     40  39  34     2.085225181225   114.11175766     7.27626823
 H     40  39  34     2.100634052679   109.88794536   244.83994614
 H     40  39  34     2.098166185387   109.50310772   125.52703873
 C     39  34  32     2.753632829217   122.22905190   204.25874876
 H     44  39  34     2.097415727331   110.06499811   239.63299506
 H     44  39  34     2.101588780885   109.21702930   120.42853189
 H     44  39  34     2.085227959588   113.98786185     2.52630548

---------------------
BASIS SET INFORMATION
---------------------
There are 3 groups of distinct atoms

 Group   1 Type C   : 11s6p2d1f contracted to 5s3p2d1f pattern {62111/411/11/1}
 Group   2 Type H   : 5s1p contracted to 3s1p pattern {311/1}
 Group   3 Type N   : 11s6p2d1f contracted to 5s3p2d1f pattern {62111/411/11/1}

Atom   0C    basis set group =>   1
Atom   1C    basis set group =>   1
Atom   2H    basis set group =>   2
Atom   3H    basis set group =>   2
Atom   4H    basis set group =>   2
Atom   5C    basis set group =>   1
Atom   6C    basis set group =>   1
Atom   7H    basis set group =>   2
Atom   8H    basis set group =>   2
Atom   9H    basis set group =>   2
Atom  10C    basis set group =>   1
Atom  11C    basis set group =>   1
Atom  12C    basis set group =>   1
Atom  13H    basis set group =>   2
Atom  14C    basis set group =>   1
Atom  15H    basis set group =>   2
Atom  16N    basis set group =>   3
Atom  17N    basis set group =>   3
Atom  18C    basis set group =>   1
Atom  19C    basis set group =>   1
Atom  20H    basis set group =>   2
Atom  21C    basis set group =>   1
Atom  22H    basis set group =>   2
Atom  23H    basis set group =>   2
Atom  24H    basis set group =>   2
Atom  25C    basis set group =>   1
Atom  26H    basis set group =>   2
Atom  27H    basis set group =>   2
Atom  28H    basis set group =>   2
Atom  29C    basis set group =>   1
Atom  30C    basis set group =>   1
Atom  31C    basis set group =>   1
Atom  32H    basis set group =>   2
Atom  33C    basis set group =>   1
Atom  34H    basis set group =>   2
Atom  35C    basis set group =>   1
Atom  36H    basis set group =>   2
Atom  37H    basis set group =>   2
Atom  38N    basis set group =>   3
Atom  39C    basis set group =>   1
Atom  40H    basis set group =>   2
Atom  41H    basis set group =>   2
Atom  42H    basis set group =>   2
Atom  43C    basis set group =>   1
Atom  44H    basis set group =>   2
Atom  45H    basis set group =>   2
Atom  46H    basis set group =>   2
---------------------------------
AUXILIARY/J BASIS SET INFORMATION
---------------------------------
There are 3 groups of distinct atoms

 Group   1 Type C   : 12s5p4d2f1g contracted to 6s4p3d1f1g pattern {711111/2111/211/2/1}
 Group   2 Type H   : 5s2p1d contracted to 3s1p1d pattern {311/2/1}
 Group   3 Type N   : 12s5p4d2f1g contracted to 6s4p3d1f1g pattern {711111/2111/211/2/1}

Atom   0C    basis set group =>   1
Atom   1C    basis set group =>   1
Atom   2H    basis set group =>   2
Atom   3H    basis set group =>   2
Atom   4H    basis set group =>   2
Atom   5C    basis set group =>   1
Atom   6C    basis set group =>   1
Atom   7H    basis set group =>   2
Atom   8H    basis set group =>   2
Atom   9H    basis set group =>   2
Atom  10C    basis set group =>   1
Atom  11C    basis set group =>   1
Atom  12C    basis set group =>   1
Atom  13H    basis set group =>   2
Atom  14C    basis set group =>   1
Atom  15H    basis set group =>   2
Atom  16N    basis set group =>   3
Atom  17N    basis set group =>   3
Atom  18C    basis set group =>   1
Atom  19C    basis set group =>   1
Atom  20H    basis set group =>   2
Atom  21C    basis set group =>   1
Atom  22H    basis set group =>   2
Atom  23H    basis set group =>   2
Atom  24H    basis set group =>   2
Atom  25C    basis set group =>   1
Atom  26H    basis set group =>   2
Atom  27H    basis set group =>   2
Atom  28H    basis set group =>   2
Atom  29C    basis set group =>   1
Atom  30C    basis set group =>   1
Atom  31C    basis set group =>   1
Atom  32H    basis set group =>   2
Atom  33C    basis set group =>   1
Atom  34H    basis set group =>   2
Atom  35C    basis set group =>   1
Atom  36H    basis set group =>   2
Atom  37H    basis set group =>   2
Atom  38N    basis set group =>   3
Atom  39C    basis set group =>   1
Atom  40H    basis set group =>   2
Atom  41H    basis set group =>   2
Atom  42H    basis set group =>   2
Atom  43C    basis set group =>   1
Atom  44H    basis set group =>   2
Atom  45H    basis set group =>   2
Atom  46H    basis set group =>   2
--------------------------------------------------------------------------
[[36252,1],3]: A high-performance Open MPI point-to-point messaging module
was unable to find any relevant network interfaces:

Module: OpenFabrics (openib)
  Host: compute-0-15

Another transport will be used instead, although this may result in
lower performance.

NOTE: You can disable this warning by setting the MCA parameter
btl_base_warn_component_unused to 0.
--------------------------------------------------------------------------


           ************************************************************
           *        Program running with 4 parallel MPI-processes     *
           *              working on a common directory               *
           ************************************************************
------------------------------------------------------------------------------
                           ORCA GTO INTEGRAL CALCULATION
------------------------------------------------------------------------------

                         BASIS SET STATISTICS AND STARTUP INFO

 # of primitive gaussian shells          ...  590
 # of primitive gaussian functions       ... 1212
 # of contracted shells                  ...  342
 # of contracted basis functions         ...  832
 Highest angular momentum                ...    3
 Maximum contraction depth               ...    6
 Integral package used                   ... LIBINT
 Integral threshhold            Thresh   ...  2.500e-11
 Primitive cut-off              TCut     ...  2.500e-12


------------------------------ INTEGRAL EVALUATION ----------------------------


 * One electron integrals 
 Pre-screening matrix                    ... done
 Shell pair data                         ... done (   0.018 sec)

[compute-0-15.local:23834] 3 more processes have sent help message help-mpi-btl-base.txt / btl:no-nics
[compute-0-15.local:23834] Set MCA parameter "orte_base_help_aggregate" to 0 to see all help / error messages
--------------------------------------------------------------------------
[[36276,1],2]: A high-performance Open MPI point-to-point messaging module
was unable to find any relevant network interfaces:

Module: OpenFabrics (openib)
  Host: compute-0-15

Another transport will be used instead, although this may result in
lower performance.

NOTE: You can disable this warning by setting the MCA parameter
btl_base_warn_component_unused to 0.
--------------------------------------------------------------------------


           ************************************************************
           *        Program running with 4 parallel MPI-processes     *
           *              working on a common directory               *
           ************************************************************
-------------------------------------------------------------------------------
                                 ORCA SCF
-------------------------------------------------------------------------------

------------
SCF SETTINGS
------------
Hamiltonian:
 Density Functional     Method          .... DFT(GTOs)
 Exchange Functional    Exchange        .... WB97X-D3
 Correlation Functional Correlation     .... WB97X-D3
 Gradients option       PostSCFGGA      .... off
 Hybrid DFT is turned on
   Fraction HF Exchange ScalHFX         ....  0.195728
   Scaling of DF-GGA-X  ScalDFX         ....  0.000000
   Scaling of DF-GGA-C  ScalDFC         ....  1.000000
   Scaling of DF-LDA-C  ScalLDAC        ....  1.000000
   Perturbative correction              ....  0.000000
   Density functional embedding theory  .... OFF
 Long-range corrected/Screened/Range-Separated Hybrid DFT is turned on
   Amount of maximum screened exact exchange              ....  0.804272
   Range separation parameter mu (erf(mu*r12)/r12)        ....  0.250000


General Settings:
 Integral files         IntName         .... N-DMBI-Me2
 Hartree-Fock type      HFTyp           .... RHF
 Total Charge           Charge          ....    0
 Multiplicity           Mult            ....    1
 Number of Electrons    NEL             ....  160
 Basis Dimension        Dim             ....  832
 Nuclear Repulsion      ENuc            ....   1739.8007348882 Eh

Convergence Acceleration:
 DIIS                   CNVDIIS         .... on
   Start iteration      DIISMaxIt       ....    12
   Startup error        DIISStart       ....  0.200000
   # of expansion vecs  DIISMaxEq       ....     5
   Bias factor          DIISBfac        ....   1.050
   Max. coefficient     DIISMaxC        ....  10.000
 Newton-Raphson         CNVNR           .... off
 SOSCF                  CNVSOSCF        .... on
   Start iteration      SOSCFMaxIt      ....   150
   Startup grad/error   SOSCFStart      ....  0.003300
 Level Shifting         CNVShift        .... on
   Level shift para.    LevelShift      ....    0.2500
   Turn off err/grad.   ShiftErr        ....    0.0010
 Zerner damping         CNVZerner       .... off
 Static damping         CNVDamp         .... on
   Fraction old density DampFac         ....    0.7000
   Max. Damping (<1)    DampMax         ....    0.9800
   Min. Damping (>=0)   DampMin         ....    0.0000
   Turn off err/grad.   DampErr         ....    0.1000
 Fernandez-Rico         CNVRico         .... off

SCF Procedure:
 Maximum # iterations   MaxIter         ....   125
 SCF integral mode      SCFMode         .... Direct
   Integral package                     .... LIBINT
 Reset frequency        DirectResetFreq ....    20
 Integral Threshold     Thresh          ....  2.500e-11 Eh
 Primitive CutOff       TCut            ....  2.500e-12 Eh

Convergence Tolerance:
 Convergence Check Mode ConvCheckMode   .... Total+1el-Energy
 Convergence forced     ConvForced      .... 0
 Energy Change          TolE            ....  1.000e-08 Eh
 1-El. energy change                    ....  1.000e-05 Eh
 Orbital Gradient       TolG            ....  1.000e-05
 Orbital Rotation angle TolX            ....  1.000e-05
 DIIS Error             TolErr          ....  5.000e-07


Diagonalization of the overlap matrix:
Smallest eigenvalue                        ... 4.721e-06
Time for diagonalization                   ...    0.359 sec
Threshold for overlap eigenvalues          ... 1.000e-08
Number of eigenvalues below threshold      ... 0
Time for construction of square roots      ...    0.144 sec
Total time needed                          ...    0.507 sec

-------------------
DFT GRID GENERATION
-------------------

General Integration Accuracy     IntAcc      ...  4.340
Radial Grid Type                 RadialGrid  ... Gauss-Chebyshev
Angular Grid (max. acc.)         AngularGrid ... Lebedev-110
Angular grid pruning method      GridPruning ... 3 (G Style)
Weight generation scheme         WeightScheme... Becke
Basis function cutoff            BFCut       ...    1.0000e-11
Integration weight cutoff        WCut        ...    1.0000e-14
Grids for H and He will be reduced by one unit

# of grid points (after initial pruning)     ...  56420 (   0.0 sec)
# of grid points (after weights+screening)   ...  50129 (   0.4 sec)
nearest neighbour list constructed           ...    0.0 sec
Grid point re-assignment to atoms done       ...    0.0 sec
Grid point division into batches done        ...    0.1 sec
Reduced shell lists constructed in    0.4 sec

Total number of grid points                  ...    50129
Total number of batches                      ...      808
Average number of points per batch           ...       62
Average number of grid points per atom       ...     1067
Average number of shells per batch           ...   126.33 (36.94%)
Average number of basis functions per batch  ...   300.92 (36.17%)
Average number of large shells per batch     ...    84.69 (67.04%)
Average number of large basis fcns per batch ...   204.70 (68.03%)
Maximum spatial batch extension              ...  14.97, 19.69, 33.93 au
Average spatial batch extension              ...   0.80,  0.89,  1.09 au

Time for grid setup =    0.942 sec

------------------------------
INITIAL GUESS: MODEL POTENTIAL
------------------------------
Loading Hartree-Fock densities                     ... done
Calculating cut-offs                               ... done
Setting up the integral package                    ... done
Initializing the effective Hamiltonian             ... done
Starting the Coulomb interaction                   ... done (   1.3 sec)
Reading the grid                                   ... done
Mapping shells                                     ... done
Starting the XC term evaluation                    ... done (   1.2 sec)
  promolecular density results
     # of electrons  =    160.001442504
     EX              =   -124.188722327
     EC              =     -5.332748616
     EX+EC           =   -129.521470943
Transforming the Hamiltonian                       ... done (   0.2 sec)
Diagonalizing the Hamiltonian                      ... done (   0.3 sec)
Back transforming the eigenvectors                 ... done (   0.1 sec)
Now organizing SCF variables                       ... done
                      ------------------
                      INITIAL GUESS DONE (   4.1 sec)
                      ------------------
[compute-0-15.local:23858] 3 more processes have sent help message help-mpi-btl-base.txt / btl:no-nics
[compute-0-15.local:23858] Set MCA parameter "orte_base_help_aggregate" to 0 to see all help / error messages

--------------------
CPCM SOLVATION MODEL
--------------------
CPCM parameters:
  Epsilon                                         ...       3.0000
  Refrac                                          ...       1.3300
  Rsolv                                           ...       1.3000
  Surface type                                    ...    GEPOL SES
  Epsilon function type                           ...         CPCM
Radii:
 Radius for C  used is    3.7795 Bohr (=   2.0000 Ang.)
 Radius for H  used is    2.4566 Bohr (=   1.3000 Ang.)
 Radius for N  used is    3.4582 Bohr (=   1.8300 Ang.)
Calculating surface                               ...        done! (  0.2s)
GEPOL surface points                              ...         1471
GEPOL Volume                                      ...    2575.5280
GEPOL Surface-area                                ...    1271.2796
Calculating surface distance matrix               ...        done! (  0.0s)
Performing Cholesky decomposition & store         ...        done! (  0.1s)
Overall time for CPCM initialization              ...                 0.3s
--------------
SCF ITERATIONS
--------------
ITER       Energy         Delta-E        Max-DP      RMS-DP      [F,P]     Damp
               ***  Starting incremental Fock matrix formation  ***
  0   -902.8741823840   0.000000000000 0.02822430  0.00052978  0.1692032 0.7000
  1   -903.0580611144  -0.183878730366 0.02302583  0.00043309  0.1028624 0.7000
                               ***Turning on DIIS***
  2   -903.1590147768  -0.100953662413 0.06083382  0.00098159  0.0541042 0.0000
  3   -903.3272871364  -0.168272359584 0.01596043  0.00026010  0.0371289 0.0000
  4   -903.3482591216  -0.020971985224 0.00553948  0.00009905  0.0061276 0.0000
                      *** Initiating the SOSCF procedure ***
                           *** Shutting down DIIS ***
                      *** Re-Reading the Fockian *** 
                      *** Removing any level shift *** 
ITER      Energy       Delta-E        Grad      Rot      Max-DP    RMS-DP
  5   -903.34888608  -0.0006269565  0.001416  0.001416  0.002566  0.000042
               *** Restarting incremental Fock matrix formation ***
  6   -903.34898658  -0.0001004992  0.000977  0.003106  0.001992  0.000030
  7   -903.34902050  -0.0000339178  0.000476  0.002957  0.002698  0.000026
  8   -903.34902769  -0.0000071905  0.000212  0.000384  0.000376  0.000007
  9   -903.34903009  -0.0000024050  0.000061  0.000164  0.000145  0.000002
 10   -903.34903024  -0.0000001483  0.000026  0.000112  0.000083  0.000001
 11   -903.34903030  -0.0000000566  0.000014  0.000091  0.000054  0.000000
 12   -903.34903029   0.0000000059  0.000005  0.000019  0.000019  0.000000
                  ***Gradient check signals convergence***
              ***Rediagonalizing the Fockian in SOSCF/NRSCF***

               *****************************************************
               *                     SUCCESS                       *
               *           SCF CONVERGED AFTER  13 CYCLES          *
               *****************************************************

Setting up the final grid:

General Integration Accuracy     IntAcc      ...  4.670
Radial Grid Type                 RadialGrid  ... Gauss-Chebyshev
Angular Grid (max. acc.)         AngularGrid ... Lebedev-302
Angular grid pruning method      GridPruning ... 3 (G Style)
Weight generation scheme         WeightScheme... Becke
Basis function cutoff            BFCut       ...    1.0000e-11
Integration weight cutoff        WCut        ...    1.0000e-14
Grids for H and He will be reduced by one unit

# of grid points (after initial pruning)     ... 221514 (   0.0 sec)
# of grid points (after weights+screening)   ... 192300 (   1.6 sec)
nearest neighbour list constructed           ...    0.0 sec
Grid point re-assignment to atoms done       ...    0.0 sec
Grid point division into batches done        ...    0.8 sec
Reduced shell lists constructed in    2.0 sec

Total number of grid points                  ...   192300
Total number of batches                      ...     3029
Average number of points per batch           ...       63
Average number of grid points per atom       ...     4091
Average number of shells per batch           ...   115.38 (33.74%)
Average number of basis functions per batch  ...   273.65 (32.89%)
Average number of large shells per batch     ...    76.00 (65.87%)
Average number of large basis fcns per batch ...   181.90 (66.47%)
Maximum spatial batch extension              ...  17.30, 18.39, 39.21 au
Average spatial batch extension              ...   0.55,  0.58,  0.63 au

Final grid set up in    4.0 sec
Final integration                            ... done (   4.7 sec)
Change in XC energy                          ...     0.002242226
Integrated number of electrons               ...   160.000144747
Previous integrated no of electrons          ...   160.009361560

----------------
TOTAL SCF ENERGY
----------------

Total Energy       :         -903.34678806 Eh          -24581.31579 eV

Components:
Nuclear Repulsion  :         1739.80073489 Eh           47342.38484 eV
Electronic Energy  :        -2643.14752294 Eh          -71923.70063 eV
One Electron Energy:        -4678.92043060 Eh         -127319.89774 eV
Two Electron Energy:         2035.77290766 Eh           55396.19711 eV
CPCM Dielectric    :           -0.01020489 Eh              -0.27769 eV

Virial components:
Potential Energy   :        -1801.46707917 Eh          -49020.41137 eV
Kinetic Energy     :          898.12029111 Eh           24439.09558 eV
Virial Ratio       :            2.00581937


DFT components:
N(Alpha)           :       80.000072373526 electrons
N(Beta)            :       80.000072373526 electrons
N(Total)           :      160.000144747052 electrons
E(XC)              :      -91.081573789867 Eh       
DFET-embed. en.    :        0.000000000000 Eh       
CPCM Solvation Model Properties:
Surface-charge          :           -0.04586514
Charge-correction       :           -0.00012168 Eh              -0.00331 eV
Free-energy (cav+disp)  :            0.00594241 Eh               0.16170 eV
Corrected G(solv)       :         -903.34096732 Eh          -24581.15740 eV

---------------
SCF CONVERGENCE
---------------

  Last Energy change         ...    8.1462e-09  Tolerance :   1.0000e-08
  Last MAX-Density change    ...    2.4317e-05  Tolerance :   1.0000e-07
  Last RMS-Density change    ...    2.3270e-07  Tolerance :   5.0000e-09
  Last Orbital Gradient      ...    1.4314e-06  Tolerance :   1.0000e-05
  Last Orbital Rotation      ...    6.0280e-06  Tolerance :   1.0000e-05

             **** THE GBW FILE WAS UPDATED (N-DMBI-Me2.gbw) ****
             **** DENSITY FILE WAS UPDATED (N-DMBI-Me2.scfp) ****
             **** ENERGY FILE WAS UPDATED (N-DMBI-Me2.en.tmp) ****
             **** THE GBW FILE WAS UPDATED (N-DMBI-Me2.gbw) ****
             **** DENSITY FILE WAS UPDATED (N-DMBI-Me2.scfp) ****
----------------
ORBITAL ENERGIES
----------------

  NO   OCC          E(Eh)            E(eV) 
   0   2.0000     -14.432961      -392.7408 
   1   2.0000     -14.428099      -392.6085 
   2   2.0000     -14.427118      -392.5818 
   3   2.0000     -10.348444      -281.5955 
   4   2.0000     -10.329546      -281.0812 
   5   2.0000     -10.304573      -280.4017 
   6   2.0000     -10.304256      -280.3931 
   7   2.0000     -10.301782      -280.3257 
   8   2.0000     -10.301421      -280.3159 
   9   2.0000     -10.299172      -280.2547 
  10   2.0000     -10.296237      -280.1748 
  11   2.0000     -10.281115      -279.7634 
  12   2.0000     -10.278398      -279.6894 
  13   2.0000     -10.276603      -279.6406 
  14   2.0000     -10.274610      -279.5864 
  15   2.0000     -10.273125      -279.5459 
  16   2.0000     -10.270976      -279.4875 
  17   2.0000     -10.269976      -279.4603 
  18   2.0000     -10.263306      -279.2788 
  19   2.0000     -10.262684      -279.2618 
  20   2.0000     -10.262591      -279.2593 
  21   2.0000     -10.262297      -279.2513 
  22   2.0000      -1.102596       -30.0032 
  23   2.0000      -1.044799       -28.4304 
  24   2.0000      -1.007293       -27.4098 
  25   2.0000      -0.969682       -26.3864 
  26   2.0000      -0.955579       -26.0026 
  27   2.0000      -0.891761       -24.2660 
  28   2.0000      -0.868602       -23.6359 
  29   2.0000      -0.865429       -23.5495 
  30   2.0000      -0.862086       -23.4586 
  31   2.0000      -0.841372       -22.8949 
  32   2.0000      -0.823362       -22.4048 
  33   2.0000      -0.803721       -21.8704 
  34   2.0000      -0.791932       -21.5496 
  35   2.0000      -0.768159       -20.9027 
  36   2.0000      -0.751733       -20.4557 
  37   2.0000      -0.716953       -19.5093 
  38   2.0000      -0.706722       -19.2309 
  39   2.0000      -0.687832       -18.7168 
  40   2.0000      -0.676037       -18.3959 
  41   2.0000      -0.665911       -18.1203 
  42   2.0000      -0.625512       -17.0210 
  43   2.0000      -0.608872       -16.5682 
  44   2.0000      -0.592631       -16.1263 
  45   2.0000      -0.579830       -15.7780 
  46   2.0000      -0.576677       -15.6922 
  47   2.0000      -0.562403       -15.3038 
  48   2.0000      -0.560560       -15.2536 
  49   2.0000      -0.553205       -15.0535 
  50   2.0000      -0.540584       -14.7100 
  51   2.0000      -0.537077       -14.6146 
  52   2.0000      -0.530489       -14.4353 
  53   2.0000      -0.526114       -14.3163 
  54   2.0000      -0.523380       -14.2419 
  55   2.0000      -0.521116       -14.1803 
  56   2.0000      -0.512314       -13.9408 
  57   2.0000      -0.510552       -13.8928 
  58   2.0000      -0.503080       -13.6895 
  59   2.0000      -0.489370       -13.3164 
  60   2.0000      -0.485926       -13.2227 
  61   2.0000      -0.482553       -13.1309 
  62   2.0000      -0.476888       -12.9768 
  63   2.0000      -0.473292       -12.8789 
  64   2.0000      -0.471682       -12.8351 
  65   2.0000      -0.469854       -12.7854 
  66   2.0000      -0.465927       -12.6785 
  67   2.0000      -0.463551       -12.6139 
  68   2.0000      -0.458242       -12.4694 
  69   2.0000      -0.440464       -11.9856 
  70   2.0000      -0.430895       -11.7253 
  71   2.0000      -0.423255       -11.5174 
  72   2.0000      -0.422593       -11.4993 
  73   2.0000      -0.372192       -10.1278 
  74   2.0000      -0.368672       -10.0321 
  75   2.0000      -0.356098        -9.6899 
  76   2.0000      -0.339953        -9.2506 
  77   2.0000      -0.295928        -8.0526 
  78   2.0000      -0.271482        -7.3874 
  79   2.0000      -0.234098        -6.3701 
  80   0.0000       0.059537         1.6201 
  81   0.0000       0.070270         1.9121 
  82   0.0000       0.080578         2.1926 
  83   0.0000       0.097143         2.6434 
  84   0.0000       0.113033         3.0758 
  85   0.0000       0.120638         3.2827 
  86   0.0000       0.127841         3.4787 
  87   0.0000       0.130120         3.5407 
  88   0.0000       0.147836         4.0228 
  89   0.0000       0.152026         4.1368 
  90   0.0000       0.156380         4.2553 
  91   0.0000       0.161154         4.3852 
  92   0.0000       0.164944         4.4883 
  93   0.0000       0.173248         4.7143 
  94   0.0000       0.177812         4.8385 
  95   0.0000       0.182639         4.9699 
  96   0.0000       0.186261         5.0684 
  97   0.0000       0.186525         5.0756 
  98   0.0000       0.190813         5.1923 
  99   0.0000       0.194433         5.2908 
 100   0.0000       0.198407         5.3989 
 101   0.0000       0.201737         5.4896 
 102   0.0000       0.203921         5.5490 
 103   0.0000       0.208516         5.6740 
 104   0.0000       0.210926         5.7396 
 105   0.0000       0.216097         5.8803 
 106   0.0000       0.220588         6.0025 
 107   0.0000       0.222834         6.0636 
 108   0.0000       0.226782         6.1710 
 109   0.0000       0.233318         6.3489 
 110   0.0000       0.236701         6.4410 
 111   0.0000       0.238491         6.4897 
 112   0.0000       0.243706         6.6316 
 113   0.0000       0.245197         6.6721 
 114   0.0000       0.252307         6.8656 
 115   0.0000       0.255652         6.9566 
 116   0.0000       0.261028         7.1029 
 117   0.0000       0.263371         7.1667 
 118   0.0000       0.267859         7.2888 
 119   0.0000       0.273854         7.4519 
 120   0.0000       0.278041         7.5659 
 121   0.0000       0.287829         7.8322 
 122   0.0000       0.290323         7.9001 
 123   0.0000       0.294796         8.0218 
 124   0.0000       0.298782         8.1303 
 125   0.0000       0.300892         8.1877 
 126   0.0000       0.306243         8.3333 
 127   0.0000       0.308918         8.4061 
 128   0.0000       0.311684         8.4814 
 129   0.0000       0.316285         8.6066 
 130   0.0000       0.321789         8.7563 
 131   0.0000       0.327004         8.8982 
 132   0.0000       0.331140         9.0108 
 133   0.0000       0.338012         9.1978 
 134   0.0000       0.343775         9.3546 
 135   0.0000       0.346732         9.4351 
 136   0.0000       0.352988         9.6053 
 137   0.0000       0.359038         9.7699 
 138   0.0000       0.365856         9.9554 
 139   0.0000       0.370719        10.0878 
 140   0.0000       0.372245        10.1293 
 141   0.0000       0.376525        10.2458 
 142   0.0000       0.380912        10.3651 
 143   0.0000       0.386518        10.5177 
 144   0.0000       0.391856        10.6629 
 145   0.0000       0.396749        10.7961 
 146   0.0000       0.400613        10.9012 
 147   0.0000       0.403295        10.9742 
 148   0.0000       0.404735        11.0134 
 149   0.0000       0.408697        11.1212 
 150   0.0000       0.413912        11.2631 
 151   0.0000       0.416604        11.3364 
 152   0.0000       0.427877        11.6431 
 153   0.0000       0.430465        11.7136 
 154   0.0000       0.435409        11.8481 
 155   0.0000       0.441084        12.0025 
 156   0.0000       0.445551        12.1241 
 157   0.0000       0.446569        12.1518 
 158   0.0000       0.450662        12.2631 
 159   0.0000       0.452789        12.3210 
 160   0.0000       0.455064        12.3829 
 161   0.0000       0.461288        12.5523 
 162   0.0000       0.465977        12.6799 
 163   0.0000       0.467588        12.7237 
 164   0.0000       0.475133        12.9290 
 165   0.0000       0.478349        13.0165 
 166   0.0000       0.483871        13.1668 
 167   0.0000       0.487188        13.2571 
 168   0.0000       0.489886        13.3305 
 169   0.0000       0.495260        13.4767 
 170   0.0000       0.500448        13.6179 
 171   0.0000       0.505117        13.7449 
 172   0.0000       0.509864        13.8741 
 173   0.0000       0.510710        13.8971 
 174   0.0000       0.519189        14.1279 
 175   0.0000       0.520640        14.1673 
 176   0.0000       0.523432        14.2433 
 177   0.0000       0.527414        14.3517 
 178   0.0000       0.529882        14.4188 
 179   0.0000       0.534294        14.5389 
 180   0.0000       0.537363        14.6224 
 181   0.0000       0.539330        14.6759 
 182   0.0000       0.541966        14.7476 
 183   0.0000       0.547752        14.9051 
 184   0.0000       0.548373        14.9220 
 185   0.0000       0.552213        15.0265 
 186   0.0000       0.557292        15.1647 
 187   0.0000       0.561234        15.2720 
 188   0.0000       0.562872        15.3165 
 189   0.0000       0.567568        15.4443 
 190   0.0000       0.568311        15.4645 
 191   0.0000       0.573833        15.6148 
 192   0.0000       0.578523        15.7424 
 193   0.0000       0.581886        15.8339 
 194   0.0000       0.584376        15.9017 
 195   0.0000       0.587708        15.9923 
 196   0.0000       0.592682        16.1277 
 197   0.0000       0.594564        16.1789 
 198   0.0000       0.599911        16.3244 
 199   0.0000       0.604690        16.4545 
 200   0.0000       0.606130        16.4936 
 201   0.0000       0.612438        16.6653 
 202   0.0000       0.615145        16.7389 
 203   0.0000       0.621703        16.9174 
 204   0.0000       0.627032        17.0624 
 205   0.0000       0.631019        17.1709 
 206   0.0000       0.634496        17.2655 
 207   0.0000       0.641555        17.4576 
 208   0.0000       0.650125        17.6908 
 209   0.0000       0.657396        17.8887 
 210   0.0000       0.667687        18.1687 
 211   0.0000       0.670892        18.2559 
 212   0.0000       0.673283        18.3210 
 213   0.0000       0.678367        18.4593 
 214   0.0000       0.687543        18.7090 
 215   0.0000       0.697215        18.9722 
 216   0.0000       0.699411        19.0319 
 217   0.0000       0.705249        19.1908 
 218   0.0000       0.709974        19.3194 
 219   0.0000       0.716123        19.4867 
 220   0.0000       0.718724        19.5575 
 221   0.0000       0.729128        19.8406 
 222   0.0000       0.733028        19.9467 
 223   0.0000       0.738845        20.1050 
 224   0.0000       0.741266        20.1709 
 225   0.0000       0.744318        20.2539 
 226   0.0000       0.744852        20.2684 
 227   0.0000       0.757412        20.6102 
 228   0.0000       0.763523        20.7765 
 229   0.0000       0.768319        20.9070 
 230   0.0000       0.776979        21.1427 
 231   0.0000       0.785905        21.3856 
 232   0.0000       0.790420        21.5084 
 233   0.0000       0.795674        21.6514 
 234   0.0000       0.799578        21.7576 
 235   0.0000       0.802856        21.8468 
 236   0.0000       0.809735        22.0340 
 237   0.0000       0.817514        22.2457 
 238   0.0000       0.824117        22.4254 
 239   0.0000       0.827619        22.5207 
 240   0.0000       0.834131        22.6979 
 241   0.0000       0.840914        22.8824 
 242   0.0000       0.850583        23.1455 
 243   0.0000       0.857518        23.3343 
 244   0.0000       0.865061        23.5395 
 245   0.0000       0.871770        23.7221 
 246   0.0000       0.877136        23.8681 
 247   0.0000       0.884746        24.0752 
 248   0.0000       0.889062        24.1926 
 249   0.0000       0.895788        24.3756 
 250   0.0000       0.897401        24.4195 
 251   0.0000       0.908434        24.7197 
 252   0.0000       0.915582        24.9143 
 253   0.0000       0.922152        25.0930 
 254   0.0000       0.927388        25.2355 
 255   0.0000       0.932799        25.3828 
 256   0.0000       0.939495        25.5650 
 257   0.0000       0.945961        25.7409 
 258   0.0000       0.952011        25.9055 
 259   0.0000       0.955432        25.9986 
 260   0.0000       0.963058        26.2061 
 261   0.0000       0.971280        26.4299 
 262   0.0000       0.982519        26.7357 
 263   0.0000       0.987692        26.8765 
 264   0.0000       0.999079        27.1863 
 265   0.0000       1.003787        27.3144 
 266   0.0000       1.010697        27.5025 
 267   0.0000       1.017529        27.6884 
 268   0.0000       1.031170        28.0596 
 269   0.0000       1.040389        28.3104 
 270   0.0000       1.045336        28.4450 
 271   0.0000       1.048654        28.5353 
 272   0.0000       1.058662        28.8077 
 273   0.0000       1.063526        28.9400 
 274   0.0000       1.070229        29.1224 
 275   0.0000       1.072067        29.1724 
 276   0.0000       1.079094        29.3636 
 277   0.0000       1.082359        29.4525 
 278   0.0000       1.089909        29.6579 
 279   0.0000       1.099186        29.9104 
 280   0.0000       1.107964        30.1492 
 281   0.0000       1.109896        30.2018 
 282   0.0000       1.121945        30.5297 
 283   0.0000       1.128533        30.7089 
 284   0.0000       1.133045        30.8317 
 285   0.0000       1.141748        31.0685 
 286   0.0000       1.147797        31.2331 
 287   0.0000       1.156241        31.4629 
 288   0.0000       1.164653        31.6918 
 289   0.0000       1.167430        31.7674 
 290   0.0000       1.174240        31.9527 
 291   0.0000       1.176146        32.0046 
 292   0.0000       1.181583        32.1525 
 293   0.0000       1.200949        32.6795 
 294   0.0000       1.207194        32.8494 
 295   0.0000       1.207955        32.8701 
 296   0.0000       1.215868        33.0854 
 297   0.0000       1.217763        33.1370 
 298   0.0000       1.224981        33.3334 
 299   0.0000       1.237682        33.6790 
 300   0.0000       1.249062        33.9887 
 301   0.0000       1.261808        34.3355 
 302   0.0000       1.264115        34.3983 
 303   0.0000       1.268444        34.5161 
 304   0.0000       1.279385        34.8138 
 305   0.0000       1.290825        35.1251 
 306   0.0000       1.295994        35.2658 
 307   0.0000       1.304212        35.4894 
 308   0.0000       1.318277        35.8722 
 309   0.0000       1.322810        35.9955 
 310   0.0000       1.334778        36.3212 
 311   0.0000       1.342353        36.5273 
 312   0.0000       1.359357        36.9900 
 313   0.0000       1.363365        37.0990 
 314   0.0000       1.369014        37.2528 
 315   0.0000       1.376818        37.4651 
 316   0.0000       1.385991        37.7147 
 317   0.0000       1.391864        37.8746 
 318   0.0000       1.396208        37.9927 
 319   0.0000       1.408885        38.3377 
 320   0.0000       1.422268        38.7019 
 321   0.0000       1.428931        38.8832 
 322   0.0000       1.434752        39.0416 
 323   0.0000       1.454662        39.5834 
 324   0.0000       1.457128        39.6505 
 325   0.0000       1.469393        39.9842 
 326   0.0000       1.479198        40.2510 
 327   0.0000       1.481205        40.3056 
 328   0.0000       1.492904        40.6240 
 329   0.0000       1.508989        41.0617 
 330   0.0000       1.522192        41.4209 
 331   0.0000       1.528652        41.5967 
 332   0.0000       1.532304        41.6961 
 333   0.0000       1.539772        41.8993 
 334   0.0000       1.546173        42.0735 
 335   0.0000       1.558696        42.4143 
 336   0.0000       1.564708        42.5779 
 337   0.0000       1.568974        42.6939 
 338   0.0000       1.573684        42.8221 
 339   0.0000       1.574741        42.8509 
 340   0.0000       1.590855        43.2894 
 341   0.0000       1.597949        43.4824 
 342   0.0000       1.602734        43.6126 
 343   0.0000       1.611914        43.8624 
 344   0.0000       1.614108        43.9221 
 345   0.0000       1.619726        44.0750 
 346   0.0000       1.620681        44.1010 
 347   0.0000       1.625190        44.2237 
 348   0.0000       1.628249        44.3069 
 349   0.0000       1.630381        44.3649 
 350   0.0000       1.637833        44.5677 
 351   0.0000       1.639011        44.5997 
 352   0.0000       1.643752        44.7288 
 353   0.0000       1.644698        44.7545 
 354   0.0000       1.648348        44.8538 
 355   0.0000       1.652628        44.9703 
 356   0.0000       1.659728        45.1635 
 357   0.0000       1.661670        45.2163 
 358   0.0000       1.664661        45.2977 
 359   0.0000       1.673238        45.5311 
 360   0.0000       1.673747        45.5450 
 361   0.0000       1.677040        45.6346 
 362   0.0000       1.680440        45.7271 
 363   0.0000       1.690352        45.9968 
 364   0.0000       1.693780        46.0901 
 365   0.0000       1.700685        46.2780 
 366   0.0000       1.704521        46.3824 
 367   0.0000       1.710583        46.5473 
 368   0.0000       1.713527        46.6274 
 369   0.0000       1.723390        46.8958 
 370   0.0000       1.729325        47.0573 
 371   0.0000       1.730930        47.1010 
 372   0.0000       1.744567        47.4721 
 373   0.0000       1.746908        47.5358 
 374   0.0000       1.762522        47.9607 
 375   0.0000       1.765603        48.0445 
 376   0.0000       1.774174        48.2777 
 377   0.0000       1.774750        48.2934 
 378   0.0000       1.785437        48.5842 
 379   0.0000       1.794812        48.8393 
 380   0.0000       1.800973        49.0070 
 381   0.0000       1.807426        49.1826 
 382   0.0000       1.813268        49.3415 
 383   0.0000       1.816345        49.4253 
 384   0.0000       1.823233        49.6127 
 385   0.0000       1.830900        49.8213 
 386   0.0000       1.842463        50.1360 
 387   0.0000       1.848421        50.2981 
 388   0.0000       1.856015        50.5047 
 389   0.0000       1.870029        50.8861 
 390   0.0000       1.875818        51.0436 
 391   0.0000       1.879166        51.1347 
 392   0.0000       1.887423        51.3594 
 393   0.0000       1.895216        51.5715 
 394   0.0000       1.903232        51.7896 
 395   0.0000       1.908824        51.9417 
 396   0.0000       1.923416        52.3388 
[...]
      px      :     0.858130
      py      :     0.956531
      dz2     :     0.156397  d :     0.658135
      dxz     :     0.132498
      dyz     :     0.090764
      dx2y2   :     0.138986
      dxy     :     0.139489
      f0      :     0.010700  f :     0.085325
      f+1     :     0.011564
      f-1     :     0.008265
      f+2     :     0.012024
      f-2     :     0.013634
      f+3     :     0.017290
      f-3     :     0.011848
 19 C s       :     2.701027  s :     2.701027
      pz      :     1.032309  p :     2.906966
      px      :     0.909719
      py      :     0.964938
      dz2     :     0.132921  d :     0.503753
      dxz     :     0.074807
      dyz     :     0.143241
      dx2y2   :     0.085837
      dxy     :     0.066946
      f0      :     0.012084  f :     0.058001
      f+1     :     0.006045
      f-1     :     0.009430
      f+2     :     0.011605
      f-2     :     0.007620
      f+3     :     0.005939
      f-3     :     0.005277
 20 H s       :     0.806382  s :     0.806382
      pz      :     0.031877  p :     0.055292
      px      :     0.012448
      py      :     0.010967
 21 C s       :     2.829582  s :     2.829582
      pz      :     1.090286  p :     3.089090
      px      :     0.911423
      py      :     1.087381
      dz2     :     0.042226  d :     0.340368
      dxz     :     0.120661
      dyz     :     0.022062
      dx2y2   :     0.083667
      dxy     :     0.071751
      f0      :     0.004639  f :     0.040923
      f+1     :     0.005623
      f-1     :     0.003134
      f+2     :     0.006175
      f-2     :     0.003838
      f+3     :     0.007249
      f-3     :     0.010265
 22 H s       :     0.812866  s :     0.812866
      pz      :     0.013684  p :     0.061611
      px      :     0.010682
      py      :     0.037245
 23 H s       :     0.815166  s :     0.815166
      pz      :     0.029391  p :     0.061116
      px      :     0.015373
      py      :     0.016352
 24 H s       :     0.828622  s :     0.828622
      pz      :     0.028846  p :     0.060662
      px      :     0.013738
      py      :     0.018077
 25 C s       :     2.829308  s :     2.829308
      pz      :     0.990527  p :     3.087663
      px      :     1.006358
      py      :     1.090778
      dz2     :     0.107126  d :     0.340454
      dxz     :     0.065653
      dyz     :     0.063216
      dx2y2   :     0.061237
      dxy     :     0.043222
      f0      :     0.006928  f :     0.041018
      f+1     :     0.009661
      f-1     :     0.003903
      f+2     :     0.005654
      f-2     :     0.007412
      f+3     :     0.002441
      f-3     :     0.005019
 26 H s       :     0.828848  s :     0.828848
      pz      :     0.028713  p :     0.060676
      px      :     0.013360
      py      :     0.018604
 27 H s       :     0.816093  s :     0.816093
      pz      :     0.013481  p :     0.061160
      px      :     0.030264
      py      :     0.017415
 28 H s       :     0.812994  s :     0.812994
      pz      :     0.012434  p :     0.061677
      px      :     0.012795
      py      :     0.036448
 29 C s       :     2.752798  s :     2.752798
      pz      :     0.983352  p :     2.917480
      px      :     0.885194
      py      :     1.048934
      dz2     :     0.082286  d :     0.407152
      dxz     :     0.038239
      dyz     :     0.132888
      dx2y2   :     0.061767
      dxy     :     0.091972
      f0      :     0.008481  f :     0.044437
      f+1     :     0.004319
      f-1     :     0.006957
      f+2     :     0.008375
      f-2     :     0.004599
      f+3     :     0.006236
      f-3     :     0.005470
 30 C s       :     2.750902  s :     2.750902
      pz      :     0.980106  p :     2.978068
      px      :     0.953861
      py      :     1.044102
      dz2     :     0.074612  d :     0.369386
      dxz     :     0.033749
      dyz     :     0.131759
      dx2y2   :     0.058568
      dxy     :     0.070698
      f0      :     0.007623  f :     0.042212
      f+1     :     0.003930
      f-1     :     0.006874
      f+2     :     0.008188
      f-2     :     0.004271
      f+3     :     0.005905
      f-3     :     0.005423
 31 C s       :     2.750578  s :     2.750578
      pz      :     0.986711  p :     2.987504
      px      :     0.964349
      py      :     1.036444
      dz2     :     0.072555  d :     0.368385
      dxz     :     0.034370
      dyz     :     0.139487
      dx2y2   :     0.055280
      dxy     :     0.066694
      f0      :     0.008422  f :     0.042158
      f+1     :     0.004658
      f-1     :     0.006360
      f+2     :     0.008171
      f-2     :     0.003541
      f+3     :     0.006290
      f-3     :     0.004715
 32 H s       :     0.788447  s :     0.788447
      pz      :     0.027824  p :     0.058308
      px      :     0.015492
      py      :     0.014992
 33 C s       :     2.693477  s :     2.693477
      pz      :     1.029361  p :     2.786649
      px      :     0.855806
      py      :     0.901482
      dz2     :     0.134757  d :     0.635988
      dxz     :     0.073144
      dyz     :     0.170763
      dx2y2   :     0.103456
      dxy     :     0.153868
      f0      :     0.015932  f :     0.078519
      f+1     :     0.007563
      f-1     :     0.010815
      f+2     :     0.013937
      f-2     :     0.007373
      f+3     :     0.013829
      f-3     :     0.009070
 34 H s       :     0.786518  s :     0.786518
      pz      :     0.026797  p :     0.062018
      px      :     0.017079
      py      :     0.018143
 35 C s       :     2.752080  s :     2.752080
      pz      :     0.989954  p :     2.907712
      px      :     0.875905
      py      :     1.041854
      dz2     :     0.077382  d :     0.401534
      dxz     :     0.038693
      dyz     :     0.146315
      dx2y2   :     0.058201
      dxy     :     0.080943
      f0      :     0.009398  f :     0.044718
      f+1     :     0.004942
      f-1     :     0.006553
      f+2     :     0.008503
      f-2     :     0.003708
      f+3     :     0.006932
      f-3     :     0.004682
 36 H s       :     0.786213  s :     0.786213
      pz      :     0.029018  p :     0.061923
      px      :     0.017946
      py      :     0.014959
 37 H s       :     0.785303  s :     0.785303
      pz      :     0.025803  p :     0.058875
      px      :     0.013879
      py      :     0.019193
 38 N s       :     2.866953  s :     2.866953
      pz      :     1.163734  p :     3.672915
      px      :     1.374709
      py      :     1.134471
      dz2     :     0.070142  d :     0.299736
      dxz     :     0.037967
      dyz     :     0.096405
      dx2y2   :     0.047454
      dxy     :     0.047768
      f0      :     0.004786  f :     0.020621
      f+1     :     0.002380
      f-1     :     0.002263
      f+2     :     0.004487
      f-2     :     0.002064
      f+3     :     0.002484
      f-3     :     0.002158
 39 C s       :     2.827229  s :     2.827229
      pz      :     0.977135  p :     3.085147
      px      :     1.084876
      py      :     1.023136
      dz2     :     0.088334  d :     0.344756
      dxz     :     0.100348
      dyz     :     0.057908
      dx2y2   :     0.072214
      dxy     :     0.025952
      f0      :     0.006933  f :     0.041041
      f+1     :     0.005286
      f-1     :     0.008382
      f+2     :     0.005154
      f-2     :     0.008999
      f+3     :     0.003720
      f-3     :     0.002566
 40 H s       :     0.821664  s :     0.821664
      pz      :     0.012820  p :     0.060863
      px      :     0.035709
      py      :     0.012334
 41 H s       :     0.822109  s :     0.822109
      pz      :     0.026805  p :     0.060881
      px      :     0.020990
      py      :     0.013086
 42 H s       :     0.814470  s :     0.814470
      pz      :     0.012303  p :     0.061466
      px      :     0.014261
      py      :     0.034902
 43 C s       :     2.827470  s :     2.827470
      pz      :     0.965591  p :     3.085589
      px      :     1.067707
      py      :     1.052291
      dz2     :     0.101333  d :     0.344637
      dxz     :     0.096361
      dyz     :     0.048619
      dx2y2   :     0.076950
      dxy     :     0.021374
      f0      :     0.006969  f :     0.040990
      f+1     :     0.006861
      f-1     :     0.008366
      f+2     :     0.005894
      f-2     :     0.007431
      f+3     :     0.001490
      f-3     :     0.003978
 44 H s       :     0.820621  s :     0.820621
      pz      :     0.027142  p :     0.060953
      px      :     0.020021
      py      :     0.013791
 45 H s       :     0.814414  s :     0.814414
      pz      :     0.011184  p :     0.061432
      px      :     0.013323
      py      :     0.036924
 46 H s       :     0.822684  s :     0.822684
      pz      :     0.011636  p :     0.060906
      px      :     0.034880
      py      :     0.014390


                      *****************************
                      * MAYER POPULATION ANALYSIS *
                      *****************************

  NA   - Mulliken gross atomic population
  ZA   - Total nuclear charge
  QA   - Mulliken gross atomic charge
  VA   - Mayer's total valence
  BVA  - Mayer's bonded valence
  FA   - Mayer's free valence

  ATOM       NA         ZA         QA         VA         BVA        FA
  0 C      6.3779     6.0000    -0.3779     3.8820     3.8820    -0.0000
  1 C      5.9343     6.0000     0.0657     3.7589     3.7589    -0.0000
  2 H      0.8680     1.0000     0.1320     0.9620     0.9620    -0.0000
  3 H      0.8696     1.0000     0.1304     0.9632     0.9632    -0.0000
  4 H      0.8730     1.0000     0.1270     0.9762     0.9762    -0.0000
  5 C      6.3853     6.0000    -0.3853     3.8784     3.8784    -0.0000
  6 C      5.9294     6.0000     0.0706     3.7339     3.7339    -0.0000
  7 H      0.8695     1.0000     0.1305     0.9753     0.9753    -0.0000
  8 H      0.8685     1.0000     0.1315     0.9626     0.9626    -0.0000
  9 H      0.8687     1.0000     0.1313     0.9621     0.9621    -0.0000
 10 C      6.3598     6.0000    -0.3598     3.9991     3.9991    -0.0000
 11 C      6.3549     6.0000    -0.3549     3.9842     3.9842    -0.0000
 12 C      5.9062     6.0000     0.0938     3.9314     3.9314    -0.0000
 13 H      0.8649     1.0000     0.1351     0.9803     0.9803    -0.0000
 14 C      5.9239     6.0000     0.0761     3.9364     3.9364    -0.0000
 15 H      0.8669     1.0000     0.1331     0.9820     0.9820    -0.0000
 16 N      7.1123     7.0000    -0.1123     3.0789     3.0789    -0.0000
 17 N      7.1075     7.0000    -0.1075     3.0785     3.0785    -0.0000
 18 C      5.8973     6.0000     0.1027     3.7905     3.7905    -0.0000
 19 C      5.9317     6.0000     0.0683     3.3689     3.3689    -0.0000
 20 H      0.9101     1.0000     0.0899     0.9815     0.9815    -0.0000
 21 C      6.3250     6.0000    -0.3250     3.8983     3.8983    -0.0000
 22 H      0.8446     1.0000     0.1554     0.9619     0.9619    -0.0000
 23 H      0.8506     1.0000     0.1494     0.9618     0.9618    -0.0000
 24 H      0.8793     1.0000     0.1207     0.9749     0.9749    -0.0000
 25 C      6.3105     6.0000    -0.3105     3.9024     3.9024    -0.0000
 26 H      0.8830     1.0000     0.1170     0.9763     0.9763    -0.0000
 27 H      0.8562     1.0000     0.1438     0.9632     0.9632    -0.0000
 28 H      0.8485     1.0000     0.1515     0.9633     0.9633    -0.0000
 29 C      6.1966     6.0000    -0.1966     3.9954     3.9954    -0.0000
 30 C      6.3197     6.0000    -0.3197     3.9485     3.9485    -0.0000
 31 C      6.2950     6.0000    -0.2950     3.9180     3.9180    -0.0000
 32 H      0.8674     1.0000     0.1326     0.9822     0.9822    -0.0000
 33 C      5.7142     6.0000     0.2858     3.7771     3.7771    -0.0000
 34 H      0.8478     1.0000     0.1522     0.9742     0.9742    -0.0000
 35 C      6.2740     6.0000    -0.2740     4.1229     4.1229    -0.0000
 36 H      0.8483     1.0000     0.1517     0.9730     0.9730    -0.0000
 37 H      0.8634     1.0000     0.1366     1.0020     1.0020    -0.0000
 38 N      7.1021     7.0000    -0.1021     3.1524     3.1524    -0.0000
 39 C      6.3163     6.0000    -0.3163     3.8755     3.8755    -0.0000
 40 H      0.8615     1.0000     0.1385     0.9551     0.9551    -0.0000
 41 H      0.8611     1.0000     0.1389     0.9569     0.9569    -0.0000
 42 H      0.8561     1.0000     0.1439     0.9723     0.9723    -0.0000
 43 C      6.3244     6.0000    -0.3244     3.8795     3.8795    -0.0000
 44 H      0.8578     1.0000     0.1422     0.9538     0.9538    -0.0000
 45 H      0.8551     1.0000     0.1449     0.9715     0.9715    -0.0000
 46 H      0.8620     1.0000     0.1380     0.9566     0.9566    -0.0000

  Mayer bond orders larger than 0.100000
B(  0-C ,  1-C ) :   0.9187 B(  0-C ,  2-H ) :   0.9760 B(  0-C ,  3-H ) :   0.9782 
B(  0-C ,  4-H ) :   0.9851 B(  1-C ,  6-C ) :   1.4035 B(  1-C , 10-C ) :   1.4157 
B(  5-C ,  6-C ) :   0.9134 B(  5-C ,  7-H ) :   0.9847 B(  5-C ,  8-H ) :   0.9788 
B(  5-C ,  9-H ) :   0.9777 B(  6-C , 11-C ) :   1.4040 B( 10-C , 12-C ) :   1.4185 
B( 10-C , 13-H ) :   0.9363 B( 11-C , 14-C ) :   1.4127 B( 11-C , 15-H ) :   0.9430 
B( 12-C , 14-C ) :   1.2662 B( 12-C , 16-N ) :   1.1315 B( 14-C , 17-N ) :   1.1356 
B( 16-N , 18-C ) :   0.9802 B( 16-N , 21-C ) :   0.9497 B( 17-N , 18-C ) :   0.9787 
B( 17-N , 25-C ) :   0.9486 B( 18-C , 19-C ) :   0.8921 B( 18-C , 20-H ) :   0.9866 
B( 19-C , 29-C ) :   1.3247 B( 19-C , 35-C ) :   1.3309 B( 21-C , 22-H ) :   0.9691 
B( 21-C , 23-H ) :   0.9670 B( 21-C , 24-H ) :   0.9629 B( 25-C , 26-H ) :   0.9637 
B( 25-C , 27-H ) :   0.9686 B( 25-C , 28-H ) :   0.9702 B( 29-C , 31-C ) :   1.5021 
B( 29-C , 32-H ) :   0.9817 B( 30-C , 33-C ) :   1.2435 B( 30-C , 35-C ) :   1.5512 
B( 30-C , 36-H ) :   0.9570 B( 31-C , 33-C ) :   1.2707 B( 31-C , 34-H ) :   0.9638 
B( 33-C , 38-N ) :   1.2428 B( 35-C , 37-H ) :   0.9951 B( 38-N , 39-C ) :   0.9572 
B( 38-N , 43-C ) :   0.9618 B( 39-C , 40-H ) :   0.9656 B( 39-C , 41-H ) :   0.9664 
B( 39-C , 42-H ) :   0.9685 B( 43-C , 44-H ) :   0.9641 B( 43-C , 45-H ) :   0.9676 
B( 43-C , 46-H ) :   0.9664 

-------
TIMINGS
-------

Total SCF time: 0 days 0 hours 30 min 43 sec 

Total time                  ....    1843.317 sec
Sum of individual times     ....    1840.913 sec  ( 99.9%)

Fock matrix formation       ....    1832.359 sec  ( 99.4%)
  XC integration            ....      11.394 sec  (  0.6% of F)
    Basis function eval.    ....       2.260 sec  ( 19.8% of XC)
    Density eval.           ....       3.457 sec  ( 30.3% of XC)
    XC-Functional eval.     ....       0.613 sec  (  5.4% of XC)
    XC-Potential eval.      ....       4.749 sec  ( 41.7% of XC)
Diagonalization             ....       0.539 sec  (  0.0%)
Density matrix formation    ....       0.070 sec  (  0.0%)
Population analysis         ....       0.345 sec  (  0.0%)
Initial guess               ....       0.586 sec  (  0.0%)
Orbital Transformation      ....       0.000 sec  (  0.0%)
Orbital Orthonormalization  ....       0.532 sec  (  0.0%)
DIIS solution               ....       0.155 sec  (  0.0%)
SOSCF solution              ....       1.899 sec  (  0.1%)
Grid generation             ....       4.960 sec  (  0.3%)


-------------------------------------------------------------------------------
                          DFT DISPERSION CORRECTION                            
                                                                               
                              DFTD3 V3.1  Rev 1                                
                              USING zero damping                               
-------------------------------------------------------------------------------
The omegaB97X-D3 functional is recognized. Fit by Chai et al.
Active option DFTDOPT                   ...         3   

molecular C6(AA) [au] = 21060.551780 


            DFT-D V3
 parameters
 s6 scaling factor         :     1.0000 
 rs6 scaling factor        :     1.2810 
 s8 scaling factor         :     1.0000 
 rs8 scaling factor        :     1.0940 
 Damping factor alpha6     :    14.0000 
 Damping factor alpha8     :    16.0000 
 ad hoc parameters k1-k3   :    16.0000     1.3333    -4.0000 

 Edisp/kcal,au: -13.331092402154  -0.021244445751 
 E6   /kcal   :  -6.297440601 
 E8   /kcal   :  -7.033651801 
 % E8         :  52.761256082 

-------------------------   ----------------
Dispersion correction           -0.021244446
-------------------------   ----------------


-------------------------   --------------------
FINAL SINGLE POINT ENERGY      -903.405863196965
-------------------------   --------------------

                                *** OPTIMIZATION RUN DONE ***

                            ***************************************
                            *     ORCA property calculations      *
                            ***************************************

                                    ---------------------
                                    Active property flags
                                    ---------------------
   (+) Dipole Moment


------------------------------------------------------------------------------
                       ORCA ELECTRIC PROPERTIES CALCULATION
------------------------------------------------------------------------------

Dipole Moment Calculation                       ... on
Quadrupole Moment Calculation                   ... off
Polarizability Calculation                      ... off
GBWName                                         ... N-DMBI-Me2.gbw
Electron density file                           ... N-DMBI-Me2.scfp
The origin for moment calculation is the CENTER OF MASS  = (-1.028128, -6.636692 -0.921100)

-------------
DIPOLE MOMENT
-------------
                                X             Y             Z
Electronic contribution:      0.20832       0.03586       0.02185
Nuclear contribution   :     -0.12062      -1.61038      -0.58291
                        -----------------------------------------
Total Dipole Moment    :      0.08770      -1.57452      -0.56106
                        -----------------------------------------
Magnitude (a.u.)       :      1.67379
Magnitude (Debye)      :      4.25445



--------------------
Rotational spectrum 
--------------------
 
Rotational constants in cm-1:     0.028475     0.003841     0.003699 
Rotational constants in MHz :   853.657953   115.150957   110.897381 

 Dipole components along the rotational axes: 
x,y,z [a.u.] :    -1.644100    -0.033140    -0.312128 
x,y,z [Debye]:    -4.178971    -0.084234    -0.793366 

 
--------------------------------------------------------------------------
[[27603,1],0]: A high-performance Open MPI point-to-point messaging module
was unable to find any relevant network interfaces:

Module: OpenFabrics (openib)
  Host: compute-0-15

Another transport will be used instead, although this may result in
lower performance.

NOTE: You can disable this warning by setting the MCA parameter
btl_base_warn_component_unused to 0.
--------------------------------------------------------------------------
[compute-0-15.local:47957] 3 more processes have sent help message help-mpi-btl-base.txt / btl:no-nics
[compute-0-15.local:47957] Set MCA parameter "orte_base_help_aggregate" to 0 to see all help / error messages

Timings for individual modules:

Sum of individual times         ...   148174.113 sec (=2469.569 min)
GTO integral calculation        ...      158.038 sec (=   2.634 min)   0.1 %
SCF iterations                  ...    91715.617 sec (=1528.594 min)  61.9 %
SCF Gradient evaluation         ...    56278.276 sec (= 937.971 min)  38.0 %
Geometry relaxation             ...       22.182 sec (=   0.370 min)   0.0 %
                             ****ORCA TERMINATED NORMALLY****
TOTAL RUN TIME: 1 days 17 hours 9 minutes 53 seconds 122 msec
